Protein
22000
    1SOL     OW    1   5.300   5.086   4.971
    1SOL    HW1    2   5.339   5.154   5.026
    1SOL    HW2    3   5.237   5.041   5.028
    1SOL     MW    4   5.297   5.089   4.985
    2SOL     OW    5   6.226   2.693   0.246
    2SOL    HW1    6   6.234   2.681   0.341
    2SOL    HW2    7   6.180   2.615   0.216
    2SOL     MW    8   6.221   2.681   0.254
    3SOL     OW    9   7.919   8.646   8.930
    3SOL    HW1   10   7.828   8.619   8.942
    3SOL    HW2   11   7.964   8.567   8.900
    3SOL     MW   12   7.913   8.632   8.928
    4SOL     OW   13   6.956   3.864   4.234
    4SOL    HW1   14   6.977   3.936   4.294
    4SOL    HW2   15   6.991   3.892   4.150
    4SOL     MW   16   6.964   3.877   4.231
    5SOL     OW   17   8.254  10.104   0.892
    5SOL    HW1   18   8.215  10.181   0.934
    5SOL    HW2   19   8.310  10.065   0.958
    5SOL     MW   20   8.256  10.109   0.906
    6SOL     OW   21   4.023   8.460   8.806
    6SOL    HW1   22   3.969   8.382   8.820
    6SOL    HW2   23   4.100   8.427   8.759
    6SOL     MW   24   4.026   8.446   8.801
    7SOL     OW   25   2.736   1.497   4.175
    7SOL    HW1   26   2.645   1.479   4.151
    7SOL    HW2   27   2.787   1.430   4.128
    7SOL     MW   28   2.731   1.486   4.166
    8SOL     OW   29   2.204   7.649   4.482
    8SOL    HW1   30   2.114   7.648   4.515
    8SOL    HW2   31   2.244   7.726   4.523
    8SOL     MW   32   2.198   7.659   4.491
    9SOL     OW   33   9.674   0.856   2.920
    9SOL    HW1   34   9.760   0.853   2.963
    9SOL    HW2   35   9.678   0.788   2.853
    9SOL     MW   36   9.686   0.847   2.917
   10SOL     OW   37   3.432   0.501   6.368
   10SOL    HW1   38   3.419   0.467   6.279
   10SOL    HW2   39   3.496   0.440   6.407
   10SOL     MW   40   3.439   0.489   6.362
   11SOL     OW   41   9.652   4.877   6.845
   11SOL    HW1   42   9.677   4.802   6.898
   11SOL    HW2   43   9.570   4.851   6.804
   11SOL     MW   44   9.645   4.864   6.846
   12SOL     OW   45   3.778   3.268  10.134
   12SOL    HW1   46   3.736   3.320  10.202
   12SOL    HW2   47   3.710   3.258  10.067
   12SOL     MW   48   3.764   3.273  10.134
   13SOL     OW   49   9.803   5.089   3.238
   13SOL    HW1   50   9.723   5.092   3.185
   13SOL    HW2   51   9.781   5.136   3.318
   13SOL     MW   52   9.790   5.095   3.241
   14SOL     OW   53   2.082   9.148   1.406
   14SOL    HW1   54   2.105   9.093   1.481
   14SOL    HW2   55   2.082   9.088   1.331
   14SOL     MW   56   2.085   9.133   1.406
   15SOL     OW   57   4.836   0.522   8.432
   15SOL    HW1   58   4.757   0.562   8.469
   15SOL    HW2   59   4.853   0.447   8.489
   15SOL     MW   60   4.828   0.518   8.444
   16SOL     OW   61   0.572   7.023   8.373
   16SOL    HW1   62   0.560   7.034   8.467
   16SOL    HW2   63   0.531   6.938   8.354
   16SOL     MW   64   0.565   7.014   8.382
   17SOL     OW   65   5.482   1.501   3.029
   17SOL    HW1   66   5.513   1.487   2.940
   17SOL    HW2   67   5.562   1.515   3.080
   17SOL     MW   68   5.496   1.501   3.024
   18SOL     OW   69   6.518   2.744   0.558
   18SOL    HW1   70   6.424   2.743   0.537
   18SOL    HW2   71   6.558   2.792   0.486
   18SOL     MW   72   6.511   2.750   0.546
   19SOL     OW   73   9.781   4.898   6.396
   19SOL    HW1   74   9.795   4.869   6.486
   19SOL    HW2   75   9.809   4.825   6.341
   19SOL     MW   76   9.786   4.885   6.400
   20SOL     OW   77   7.329   0.436   5.035
   20SOL    HW1   78   7.343   0.500   5.105
   20SOL    HW2   79   7.242   0.457   5.001
   20SOL     MW   80   7.320   0.447   5.040
   21SOL     OW   81   3.662   2.617   3.975
   21SOL    HW1   82   3.577   2.602   4.015
   21SOL    HW2   83   3.658   2.568   3.892
   21SOL     MW   84   3.650   2.609   3.969
   22SOL     OW   85   3.289   5.698   0.602
   22SOL    HW1   86   3.371   5.653   0.583
   22SOL    HW2   87   3.312   5.764   0.668
   22SOL     MW   88   3.302   5.701   0.608
   23SOL     OW   89   7.466   3.077   5.247
   23SOL    HW1   90   7.488   2.991   5.211
   23SOL    HW2   91   7.539   3.133   5.221
   23SOL     MW   92   7.478   3.073   5.239
   24SOL     OW   93   2.387   2.396   5.075
   24SOL    HW1   94   2.393   2.311   5.031
   24SOL    HW2   95   2.424   2.380   5.162
   24SOL     MW   96   2.393   2.383   5.081
   25SOL     OW   97   6.239   0.017   5.874
   25SOL    HW1   98   6.152   0.017   5.914
   25SOL    HW2   99   6.297  -0.016   5.942
   25SOL     MW  100   6.235   0.013   5.888
   26SOL     OW  101   6.216   2.391   9.532
   26SOL    HW1  102   6.175   2.342   9.460
   26SOL    HW2  103   6.256   2.323   9.586
   26SOL     MW  104   6.216   2.376   9.529
   27SOL     OW  105   7.738   6.325   1.632
   27SOL    HW1  106   7.660   6.287   1.591
   27SOL    HW2  107   7.773   6.254   1.687
   27SOL     MW  108   7.732   6.311   1.634
   28SOL     OW  109   9.731   4.065   7.433
   28SOL    HW1  110   9.821   4.043   7.457
   28SOL    HW2  111   9.708   4.136   7.493
   28SOL     MW  112   9.740   4.071   7.444
   29SOL     OW  113   2.260   1.122   0.130
   29SOL    HW1  114   2.188   1.089   0.077
   29SOL    HW2  115   2.224   1.199   0.174
   29SOL     MW  116   2.247   1.128   0.129
   30SOL     OW  117   0.035   2.578   4.712
   30SOL    HW1  118   0.067   2.663   4.680
   30SOL    HW2  119  -0.051   2.569   4.671
   30SOL     MW  120   0.028   2.588   4.702
   31SOL     OW  121   2.092   3.856   1.056
   31SOL    HW1  122   2.093   3.941   1.099
   31SOL    HW2  123   2.155   3.865   0.984
   31SOL     MW  124   2.100   3.868   1.052
   32SOL     OW  125   1.873   5.173   6.434
   32SOL    HW1  126   1.890   5.162   6.528
   32SOL    HW2  127   1.907   5.260   6.414
   32SOL     MW  128   1.879   5.183   6.444
   33SOL     OW  129   7.140   7.630   7.544
   33SOL    HW1  130   7.118   7.539   7.564
   33SOL    HW2  131   7.075   7.657   7.480
   33SOL     MW  132   7.129   7.622   7.539
   34SOL     OW  133   5.430   5.264   5.131
   34SOL    HW1  134   5.448   5.293   5.220
   34SOL    HW2  135   5.517   5.252   5.092
   34SOL     MW  136   5.443   5.266   5.137
   35SOL     OW  137   1.994   3.299   3.018
   35SOL    HW1  138   1.947   3.216   3.026
   35SOL    HW2  139   1.927   3.362   2.989
   35SOL     MW  140   1.979   3.297   3.015
   36SOL     OW  141   0.877   3.851   5.221
   36SOL    HW1  142   0.822   3.894   5.157
   36SOL    HW2  143   0.963   3.892   5.211
   36SOL     MW  144   0.881   3.861   5.212
   37SOL     OW  145   7.934   3.067   3.847
   37SOL    HW1  146   7.918   2.989   3.901
   37SOL    HW2  147   8.028   3.062   3.826
   37SOL     MW  148   7.944   3.056   3.851
   38SOL     OW  149   3.477   8.059   0.209
   38SOL    HW1  150   3.463   7.970   0.176
   38SOL    HW2  151   3.413   8.069   0.279
   38SOL     MW  152   3.467   8.049   0.214
   39SOL     OW  153   7.350   5.542   2.226
   39SOL    HW1  154   7.305   5.622   2.255
   39SOL    HW2  155   7.368   5.494   2.307
   39SOL     MW  156   7.347   5.546   2.240
   40SOL     OW  157   4.343   2.659   7.230
   40SOL    HW1  158   4.353   2.563   7.231
   40SOL    HW2  159   4.361   2.686   7.319
   40SOL     MW  160   4.346   2.650   7.241
   41SOL     OW  161   2.212   8.985   4.068
   41SOL    HW1  162   2.148   8.935   4.120
   41SOL    HW2  163   2.252   9.045   4.130
   41SOL     MW  164   2.209   8.986   4.083
   42SOL     OW  165   6.733   5.112   0.087
   42SOL    HW1  166   6.678   5.057   0.143
   42SOL    HW2  167   6.802   5.054   0.056
   42SOL     MW  168   6.735   5.098   0.090
   43SOL     OW  169   2.617   9.748   7.887
   43SOL    HW1  170   2.671   9.687   7.938
   43SOL    HW2  171   2.596   9.818   7.949
   43SOL     MW  172   2.621   9.750   7.902
   44SOL     OW  173   6.540   2.498   2.769
   44SOL    HW1  174   6.624   2.484   2.813
   44SOL    HW2  175   6.511   2.584   2.801
   44SOL     MW  176   6.547   2.507   2.779
   45SOL     OW  177   9.049   7.567   6.472
   45SOL    HW1  178   9.097   7.616   6.405
   45SOL    HW2  179   9.082   7.602   6.555
   45SOL     MW  180   9.060   7.578   6.474
   46SOL     OW  181   1.237   7.387   0.475
   46SOL    HW1  182   1.147   7.402   0.446
   46SOL    HW2  183   1.264   7.471   0.512
   46SOL     MW  184   1.229   7.400   0.476
   47SOL     OW  185   4.634   9.135   7.990
   47SOL    HW1  186   4.657   9.044   8.012
   47SOL    HW2  187   4.592   9.168   8.070
   47SOL     MW  188   4.632   9.127   8.003
   48SOL     OW  189   9.660   2.733   5.214
   48SOL    HW1  190   9.735   2.699   5.166
   48SOL    HW2  191   9.696   2.801   5.270
   48SOL     MW  192   9.674   2.737   5.215
   49SOL     OW  193   6.172   1.582   9.911
   49SOL    HW1  194   6.212   1.624   9.987
   49SOL    HW2  195   6.078   1.591   9.925
   49SOL     MW  196   6.165   1.588   9.922
   50SOL     OW  197   0.370   4.838   4.184
   50SOL    HW1  198   0.453   4.801   4.153
   50SOL    HW2  199   0.304   4.799   4.127
   50SOL     MW  200   0.372   4.828   4.173
   51SOL     OW  201   6.121   2.234   7.743
   51SOL    HW1  202   6.104   2.310   7.688
   51SOL    HW2  203   6.192   2.262   7.801
   51SOL     MW  204   6.128   2.247   7.744
   52SOL     OW  205   4.372   3.303   9.933
   52SOL    HW1  206   4.386   3.211   9.956
   52SOL    HW2  207   4.449   3.326   9.880
   52SOL     MW  208   4.384   3.294   9.929
   53SOL     OW  209   3.441   3.799   5.011
   53SOL    HW1  210   3.375   3.862   5.040
   53SOL    HW2  211   3.419   3.718   5.058
   53SOL     MW  212   3.430   3.797   5.020
   54SOL     OW  213   9.048   7.779   0.800
   54SOL    HW1  214   9.130   7.830   0.795
   54SOL    HW2  215   9.049   7.725   0.721
   54SOL     MW  216   9.059   7.779   0.789
   55SOL     OW  217   0.009   3.239   4.711
   55SOL    HW1  218   0.051   3.278   4.787
   55SOL    HW2  219   0.021   3.303   4.641
   55SOL     MW  220   0.016   3.252   4.712
   56SOL     OW  221   1.042   3.675   6.441
   56SOL    HW1  222   0.979   3.614   6.402
   56SOL    HW2  223   1.106   3.620   6.486
   56SOL     MW  224   1.042   3.660   6.441
   57SOL     OW  225   0.078   2.654   2.527
   57SOL    HW1  226   0.000   2.709   2.527
   57SOL    HW2  227   0.068   2.597   2.450
   57SOL     MW  228   0.067   2.654   2.517
   58SOL     OW  229   5.835   8.741   8.818
   58SOL    HW1  230   5.856   8.787   8.737
   58SOL    HW2  231   5.772   8.798   8.862
   58SOL     MW  232   5.830   8.754   8.813
   59SOL     OW  233   5.690   6.953   9.943
   59SOL    HW1  234   5.761   6.930  10.004
   59SOL    HW2  235   5.638   7.018   9.990
   59SOL     MW  236   5.693   6.958   9.957
   60SOL     OW  237  10.008   3.641   2.709
   60SOL    HW1  238  10.042   3.656   2.798
   60SOL    HW2  239  10.066   3.574   2.672
   60SOL     MW  240  10.020   3.634   2.716
   61SOL     OW  241   1.494   1.250   3.910
   61SOL    HW1  242   1.441   1.323   3.877
   61SOL    HW2  243   1.580   1.264   3.872
   61SOL     MW  244   1.498   1.261   3.901
   62SOL     OW  245   9.071   4.839   3.099
   62SOL    HW1  246   9.131   4.764   3.098
   62SOL    HW2  247   8.989   4.804   3.063
   62SOL     MW  248   9.069   4.825   3.094
   63SOL     OW  249   5.963   1.477   6.903
   63SOL    HW1  250   6.043   1.470   6.955
   63SOL    HW2  251   5.915   1.551   6.942
   63SOL     MW  252   5.967   1.486   6.914
   64SOL     OW  253   5.773   3.117   5.876
   64SOL    HW1  254   5.706   3.049   5.878
   64SOL    HW2  255   5.826   3.101   5.954
   64SOL     MW  256   5.771   3.106   5.886
   65SOL     OW  257   5.581   0.424   0.055
   65SOL    HW1  258   5.667   0.416   0.012
   65SOL    HW2  259   5.536   0.342   0.034
   65SOL     MW  260   5.587   0.413   0.047
   66SOL     OW  261   9.795   2.679   7.426
   66SOL    HW1  262   9.710   2.725   7.423
   66SOL    HW2  263   9.833   2.695   7.340
   66SOL     MW  264   9.789   2.687   7.415
   67SOL     OW  265   4.722   1.720   4.303
   67SOL    HW1  266   4.765   1.801   4.332
   67SOL    HW2  267   4.786   1.652   4.321
   67SOL     MW  268   4.736   1.722   4.309
   68SOL     OW  269   1.021   1.744   0.063
   68SOL    HW1  270   0.958   1.814   0.052
   68SOL    HW2  271   1.098   1.772   0.014
   68SOL     MW  272   1.023   1.756   0.055
   69SOL     OW  273   8.017   6.641   4.960
   69SOL    HW1  274   8.111   6.644   4.977
   69SOL    HW2  275   8.010   6.615   4.868
   69SOL     MW  276   8.028   6.638   4.950
   70SOL     OW  277   7.064   1.421   1.835
   70SOL    HW1  278   7.061   1.325   1.832
   70SOL    HW2  279   7.104   1.441   1.920
   70SOL     MW  280   7.069   1.411   1.846
   71SOL     OW  281   8.415   9.212   1.668
   71SOL    HW1  282   8.457   9.126   1.662
   71SOL    HW2  283   8.331   9.196   1.710
   71SOL     MW  284   8.410   9.199   1.672
   72SOL     OW  285   7.790   7.892   0.675
   72SOL    HW1  286   7.841   7.934   0.606
   72SOL    HW2  287   7.854   7.874   0.744
   72SOL     MW  288   7.805   7.895   0.675
   73SOL     OW  289   3.887   1.296   2.291
   73SOL    HW1  290   3.947   1.229   2.259
   73SOL    HW2  291   3.934   1.379   2.280
   73SOL     MW  292   3.900   1.298   2.286
   74SOL     OW  293   2.440  10.017   8.191
   74SOL    HW1  294   2.489   9.965   8.255
   74SOL    HW2  295   2.382  10.071   8.244
   74SOL     MW  296   2.439  10.017   8.206
   75SOL     OW  297   8.270   4.245   4.983
   75SOL    HW1  298   8.325   4.167   4.997
   75SOL    HW2  299   8.307   4.310   5.043
   75SOL     MW  300   8.282   4.243   4.993
   76SOL     OW  301   3.479   2.320   7.801
   76SOL    HW1  302   3.500   2.411   7.821
   76SOL    HW2  303   3.521   2.304   7.716
   76SOL     MW  304   3.487   2.329   7.793
   77SOL     OW  305   7.277   8.879   2.248
   77SOL    HW1  306   7.214   8.808   2.244
   77SOL    HW2  307   7.225   8.956   2.272
   77SOL     MW  308   7.262   8.880   2.251
   78SOL     OW  309   9.022   8.248   2.304
   78SOL    HW1  310   8.932   8.216   2.306
   78SOL    HW2  311   9.031   8.288   2.217
   78SOL     MW  312   9.011   8.249   2.293
   79SOL     OW  313   0.115   4.683   4.903
   79SOL    HW1  314   0.109   4.777   4.922
   79SOL    HW2  315   0.143   4.680   4.811
   79SOL     MW  316   0.118   4.695   4.894
   80SOL     OW  317   1.918   1.829   7.709
   80SOL    HW1  318   1.891   1.748   7.751
   80SOL    HW2  319   1.999   1.806   7.662
   80SOL     MW  320   1.925   1.816   7.708
   81SOL     OW  321   7.222   6.282   6.093
   81SOL    HW1  322   7.281   6.250   6.161
   81SOL    HW2  323   7.256   6.368   6.070
   81SOL     MW  324   7.234   6.289   6.098
   82SOL     OW  325   4.441   4.212   6.891
   82SOL    HW1  326   4.351   4.226   6.862
   82SOL    HW2  327   4.437   4.221   6.987
   82SOL     MW  328   4.429   4.215   6.900
   83SOL     OW  329   8.717   2.230   9.796
   83SOL    HW1  330   8.781   2.286   9.751
   83SOL    HW2  331   8.634   2.249   9.752
   83SOL     MW  332   8.715   2.240   9.784
   84SOL     OW  333   4.317   1.010   7.896
   84SOL    HW1  334   4.235   1.019   7.945
   84SOL    HW2  335   4.385   1.035   7.959
   84SOL     MW  336   4.315   1.015   7.910
   85SOL     OW  337   4.668   8.729   7.117
   85SOL    HW1  338   4.603   8.736   7.047
   85SOL    HW2  339   4.632   8.782   7.188
   85SOL     MW  340   4.655   8.737   7.117
   86SOL     OW  341   1.183   2.745   2.155
   86SOL    HW1  342   1.094   2.759   2.187
   86SOL    HW2  343   1.182   2.656   2.120
   86SOL     MW  344   1.172   2.735   2.154
   87SOL     OW  345   9.709   7.063   0.105
   87SOL    HW1  346   9.690   6.979   0.146
   87SOL    HW2  347   9.626   7.089   0.064
   87SOL     MW  348   9.696   7.056   0.105
   88SOL     OW  349   4.249   9.082   8.638
   88SOL    HW1  350   4.166   9.035   8.645
   88SOL    HW2  351   4.279   9.092   8.729
   88SOL     MW  352   4.242   9.077   8.651
   89SOL     OW  353   4.011   8.621   1.919
   89SOL    HW1  354   4.105   8.607   1.910
   89SOL    HW2  355   3.974   8.593   1.835
   89SOL     MW  356   4.018   8.616   1.907
   90SOL     OW  357   3.699   0.879   4.130
   90SOL    HW1  358   3.658   0.946   4.074
   90SOL    HW2  359   3.746   0.822   4.069
   90SOL     MW  360   3.700   0.880   4.115
   91SOL     OW  361   9.739   1.587   9.580
   91SOL    HW1  362   9.694   1.596   9.664
   91SOL    HW2  363   9.671   1.562   9.518
   91SOL     MW  364   9.725   1.585   9.583
   92SOL     OW  365   1.807   4.273   4.496
   92SOL    HW1  366   1.722   4.287   4.539
   92SOL    HW2  367   1.855   4.218   4.558
   92SOL     MW  368   1.802   4.267   4.510
   93SOL     OW  369   3.518   0.691   5.066
   93SOL    HW1  370   3.423   0.698   5.073
   93SOL    HW2  371   3.533   0.604   5.028
   93SOL     MW  372   3.508   0.681   5.062
   94SOL     OW  373   7.730   3.442   1.693
   94SOL    HW1  374   7.809   3.413   1.738
   94SOL    HW2  375   7.675   3.364   1.688
   94SOL     MW  376   7.733   3.429   1.698
   95SOL     OW  377   2.694   3.282   2.636
   95SOL    HW1  378   2.608   3.264   2.674
   95SOL    HW2  379   2.739   3.198   2.638
   95SOL     MW  380   2.689   3.269   2.641
   96SOL     OW  381   0.764   1.881   2.262
   96SOL    HW1  382   0.784   1.925   2.344
   96SOL    HW2  383   0.838   1.903   2.205
   96SOL     MW  384   0.776   1.889   2.265
   97SOL     OW  385   9.256   4.660   3.918
   97SOL    HW1  386   9.239   4.631   4.007
   97SOL    HW2  387   9.300   4.744   3.927
   97SOL     MW  388   9.259   4.667   3.930
   98SOL     OW  389   5.965  10.114   9.960
   98SOL    HW1  390   6.019  10.119  10.039
   98SOL    HW2  391   5.962  10.020   9.940
   98SOL     MW  392   5.972  10.102   9.968
   99SOL     OW  393   7.362   7.603   3.442
   99SOL    HW1  394   7.457   7.598   3.457
   99SOL    HW2  395   7.339   7.693   3.464
   99SOL     MW  396   7.371   7.614   3.447
  100SOL     OW  397   9.590   2.853   7.348
  100SOL    HW1  398   9.615   2.922   7.410
  100SOL    HW2  399   9.495   2.857   7.346
  100SOL     MW  400   9.581   2.862   7.356
  101SOL     OW  401   3.946   5.228   7.780
  101SOL    HW1  402   3.962   5.318   7.753
  101SOL    HW2  403   4.008   5.176   7.728
  101SOL     MW  404   3.956   5.233   7.770
  102SOL     OW  405   9.675   8.972   2.058
  102SOL    HW1  406   9.648   9.037   2.123
  102SOL    HW2  407   9.659   8.887   2.101
  102SOL     MW  408   9.670   8.969   2.072
  103SOL     OW  409   5.055   8.459   1.447
  103SOL    HW1  410   5.044   8.482   1.355
  103SOL    HW2  411   5.126   8.516   1.477
  103SOL     MW  412   5.063   8.469   1.439
  104SOL     OW  413   2.916   1.561   4.367
  104SOL    HW1  414   2.847   1.544   4.302
  104SOL    HW2  415   2.869   1.593   4.444
  104SOL     MW  416   2.901   1.563   4.368
  105SOL     OW  417   7.349   2.673   7.178
  105SOL    HW1  418   7.301   2.595   7.149
  105SOL    HW2  419   7.433   2.639   7.208
  105SOL     MW  420   7.353   2.658   7.178
  106SOL     OW  421   6.379   9.208   0.781
  106SOL    HW1  422   6.434   9.244   0.712
  106SOL    HW2  423   6.435   9.146   0.827
  106SOL     MW  424   6.393   9.205   0.778
  107SOL     OW  425   2.884   1.118   0.773
  107SOL    HW1  426   2.935   1.196   0.750
  107SOL    HW2  427   2.800   1.130   0.728
  107SOL     MW  428   2.880   1.129   0.764
  108SOL     OW  429   8.963   1.001   0.060
  108SOL    HW1  430   8.942   1.081   0.108
  108SOL    HW2  431   9.009   1.032  -0.018
  108SOL     MW  432   8.966   1.016   0.056
  109SOL     OW  433  10.044   5.789   8.471
  109SOL    HW1  434   9.991   5.839   8.409
  109SOL    HW2  435  10.044   5.700   8.435
  109SOL     MW  436  10.038   5.784   8.458
  110SOL     OW  437   2.137   8.978   1.610
  110SOL    HW1  438   2.069   8.977   1.677
  110SOL    HW2  439   2.213   8.938   1.653
  110SOL     MW  440   2.138   8.972   1.625
  111SOL     OW  441   8.230   1.038   7.374
  111SOL    HW1  442   8.316   1.002   7.351
  111SOL    HW2  443   8.173   1.014   7.301
  111SOL     MW  444   8.234   1.030   7.362
  112SOL     OW  445   7.589   7.554   8.873
  112SOL    HW1  446   7.676   7.593   8.861
  112SOL    HW2  447   7.528   7.619   8.839
  112SOL     MW  448   7.592   7.567   8.867
  113SOL     OW  449   9.553   0.718   9.778
  113SOL    HW1  450   9.483   0.777   9.751
  113SOL    HW2  451   9.632   0.755   9.738
  113SOL     MW  452   9.554   0.730   9.769
  114SOL     OW  453   7.487   1.081   2.330
  114SOL    HW1  454   7.491   1.029   2.410
  114SOL    HW2  455   7.578   1.085   2.300
  114SOL     MW  456   7.499   1.075   2.337
  115SOL     OW  457   5.163   1.641   1.421
  115SOL    HW1  458   5.198   1.718   1.467
  115SOL    HW2  459   5.098   1.677   1.361
  115SOL     MW  460   5.159   1.656   1.419
  116SOL     OW  461   9.151   4.315   4.224
  116SOL    HW1  462   9.218   4.258   4.185
  116SOL    HW2  463   9.119   4.266   4.299
  116SOL     MW  464   9.155   4.301   4.228
  117SOL     OW  465   0.071   7.444   2.207
  117SOL    HW1  466   0.050   7.393   2.129
  117SOL    HW2  467   0.162   7.424   2.226
  117SOL     MW  468   0.080   7.435   2.199
  118SOL     OW  469   4.489   6.981   9.759
  118SOL    HW1  470   4.543   6.902   9.747
  118SOL    HW2  471   4.403   6.957   9.725
  118SOL     MW  472   4.485   6.968   9.753
  119SOL     OW  473   5.921   2.175   2.638
  119SOL    HW1  474   5.957   2.198   2.553
  119SOL    HW2  475   5.974   2.225   2.700
  119SOL     MW  476   5.932   2.184   2.635
  120SOL     OW  477   6.158   0.038   6.507
  120SOL    HW1  478   6.235  -0.008   6.541
  120SOL    HW2  479   6.174   0.130   6.528
  120SOL     MW  480   6.170   0.044   6.514
  121SOL     OW  481   5.187   6.547   5.328
  121SOL    HW1  482   5.214   6.471   5.381
  121SOL    HW2  483   5.134   6.600   5.387
  121SOL     MW  484   5.184   6.544   5.343
  122SOL     OW  485   9.422   2.730   5.070
  122SOL    HW1  486   9.502   2.727   5.122
  122SOL    HW2  487   9.396   2.823   5.073
  122SOL     MW  488   9.429   2.742   5.077
  123SOL     OW  489   3.253   2.753   3.406
  123SOL    HW1  490   3.159   2.744   3.419
  123SOL    HW2  491   3.265   2.746   3.311
  123SOL     MW  492   3.243   2.751   3.395
  124SOL     OW  493   9.466   6.587   8.396
  124SOL    HW1  494   9.423   6.512   8.436
  124SOL    HW2  495   9.496   6.555   8.311
  124SOL     MW  496   9.464   6.574   8.390
  125SOL     OW  497   2.549   8.786   3.827
  125SOL    HW1  498   2.457   8.808   3.837
  125SOL    HW2  499   2.569   8.805   3.736
  125SOL     MW  500   2.540   8.791   3.817
  126SOL     OW  501   4.050   5.686   7.828
  126SOL    HW1  502   4.108   5.761   7.813
  126SOL    HW2  503   3.989   5.716   7.896
  126SOL     MW  504   4.050   5.700   7.835
  127SOL     OW  505   1.633   1.027   7.092
  127SOL    HW1  506   1.622   1.048   7.185
  127SOL    HW2  507   1.649   0.933   7.090
  127SOL     MW  508   1.633   1.018   7.104
  128SOL     OW  509   5.286   0.647   7.166
  128SOL    HW1  510   5.199   0.688   7.160
  128SOL    HW2  511   5.273   0.572   7.224
  128SOL     MW  512   5.273   0.643   7.173
  129SOL     OW  513   1.062   5.325  10.093
  129SOL    HW1  514   1.142   5.377  10.085
  129SOL    HW2  515   1.078   5.267  10.167
  129SOL     MW  516   1.075   5.325  10.101
  130SOL     OW  517   8.543   8.927   9.650
  130SOL    HW1  518   8.613   8.988   9.675
  130SOL    HW2  519   8.472   8.984   9.620
  130SOL     MW  520   8.543   8.942   9.650
  131SOL     OW  521   9.334   9.664   0.394
  131SOL    HW1  522   9.263   9.723   0.370
  131SOL    HW2  523   9.344   9.606   0.319
  131SOL     MW  524   9.326   9.664   0.382
  132SOL     OW  525   6.854   7.946  10.114
  132SOL    HW1  526   6.803   7.872  10.146
  132SOL    HW2  527   6.879   7.922  10.025
  132SOL     MW  528   6.851   7.934  10.107
  133SOL     OW  529   3.428   6.107   7.132
  133SOL    HW1  530   3.384   6.055   7.199
  133SOL    HW2  531   3.363   6.119   7.064
  133SOL     MW  532   3.414   6.102   7.132
  134SOL     OW  533  10.020   4.068   1.890
  134SOL    HW1  534  10.099   4.121   1.904
  134SOL    HW2  535   9.952   4.112   1.941
  134SOL     MW  536  10.022   4.080   1.898
  135SOL     OW  537   6.176   9.028   0.889
  135SOL    HW1  538   6.220   8.947   0.861
  135SOL    HW2  539   6.228   9.098   0.850
  135SOL     MW  540   6.188   9.027   0.880
  136SOL     OW  541   5.423   6.858  10.174
  136SOL    HW1  542   5.447   6.802  10.100
  136SOL    HW2  543   5.435   6.947  10.142
  136SOL     MW  544   5.428   6.862  10.160
  137SOL     OW  545   1.096   5.366   9.821
  137SOL    HW1  546   1.066   5.297   9.762
  137SOL    HW2  547   1.060   5.342   9.907
  137SOL     MW  548   1.087   5.354   9.825
  138SOL     OW  549   0.471   9.190   2.575
  138SOL    HW1  550   0.510   9.149   2.498
  138SOL    HW2  551   0.377   9.193   2.556
  138SOL     MW  552   0.464   9.185   2.562
  139SOL     OW  553   6.092   6.847   7.449
  139SOL    HW1  554   6.154   6.792   7.495
  139SOL    HW2  555   6.103   6.825   7.357
  139SOL     MW  556   6.101   6.837   7.443
  140SOL     OW  557   5.033   2.873   4.726
  140SOL    HW1  558   5.099   2.929   4.768
  140SOL    HW2  559   5.083   2.799   4.692
  140SOL     MW  560   5.048   2.871   4.727
  141SOL     OW  561   3.050   7.689   7.827
  141SOL    HW1  562   2.979   7.730   7.778
  141SOL    HW2  563   3.021   7.690   7.918
  141SOL     MW  564   3.038   7.694   7.832
  142SOL     OW  565   2.465   1.469   4.124
  142SOL    HW1  566   2.419   1.553   4.114
  142SOL    HW2  567   2.403   1.414   4.173
  142SOL     MW  568   2.451   1.473   4.129
  143SOL     OW  569   2.806   1.920   1.175
  143SOL    HW1  570   2.763   1.982   1.234
  143SOL    HW2  571   2.736   1.886   1.120
  143SOL     MW  572   2.792   1.924   1.176
  144SOL     OW  573   9.247   2.569   4.341
  144SOL    HW1  574   9.267   2.557   4.433
  144SOL    HW2  575   9.275   2.488   4.299
  144SOL     MW  576   9.254   2.557   4.347
  145SOL     OW  577   8.313   5.859   2.026
  145SOL    HW1  578   8.225   5.890   2.047
  145SOL    HW2  579   8.360   5.937   1.996
  145SOL     MW  580   8.308   5.873   2.025
  146SOL     OW  581   7.873   8.734   0.388
  146SOL    HW1  582   7.800   8.777   0.432
  146SOL    HW2  583   7.834   8.654   0.352
  146SOL     MW  584   7.858   8.729   0.389
  147SOL     OW  585   6.018   9.964   3.596
  147SOL    HW1  586   6.040   9.955   3.503
  147SOL    HW2  587   6.085  10.021   3.632
  147SOL     MW  588   6.029   9.970   3.588
  148SOL     OW  589   3.384   2.411   9.290
  148SOL    HW1  590   3.382   2.329   9.240
  148SOL    HW2  591   3.326   2.470   9.241
  148SOL     MW  592   3.376   2.408   9.277
  149SOL     OW  593   1.587   9.297   3.758
  149SOL    HW1  594   1.644   9.222   3.744
  149SOL    HW2  595   1.528   9.296   3.683
  149SOL     MW  596   1.587   9.287   3.747
  150SOL     OW  597   9.315   6.870   7.849
  150SOL    HW1  598   9.235   6.902   7.891
  150SOL    HW2  599   9.290   6.855   7.758
  150SOL     MW  600   9.301   6.872   7.843
  151SOL     OW  601   2.727   1.552   8.591
  151SOL    HW1  602   2.795   1.611   8.623
  151SOL    HW2  603   2.687   1.598   8.517
  151SOL     MW  604   2.731   1.565   8.586
  152SOL     OW  605   9.727   8.704   9.407
  152SOL    HW1  606   9.753   8.631   9.351
  152SOL    HW2  607   9.803   8.762   9.408
  152SOL     MW  608   9.740   8.702   9.400
  153SOL     OW  609   9.668   4.269   7.603
  153SOL    HW1  610   9.584   4.284   7.646
  153SOL    HW2  611   9.726   4.336   7.639
  153SOL     MW  612   9.665   4.279   7.613
  154SOL     OW  613   8.017   7.063   1.562
  154SOL    HW1  614   8.018   7.154   1.532
  154SOL    HW2  615   8.059   7.065   1.648
  154SOL     MW  616   8.023   7.075   1.569
  155SOL     OW  617   2.210   1.601   1.330
  155SOL    HW1  618   2.271   1.528   1.341
  155SOL    HW2  619   2.227   1.633   1.241
  155SOL     MW  620   2.220   1.595   1.320
  156SOL     OW  621   2.665   5.742   1.341
  156SOL    HW1  622   2.580   5.745   1.297
  156SOL    HW2  623   2.665   5.818   1.399
  156SOL     MW  624   2.654   5.752   1.343
  157SOL     OW  625   6.255   1.322   4.416
  157SOL    HW1  626   6.198   1.398   4.407
  157SOL    HW2  627   6.317   1.329   4.343
  157SOL     MW  628   6.256   1.332   4.406
  158SOL     OW  629   3.963   5.546   2.299
  158SOL    HW1  630   3.984   5.571   2.389
  158SOL    HW2  631   3.938   5.629   2.257
  158SOL     MW  632   3.962   5.560   2.305
  159SOL     OW  633   2.598   3.672   1.213
  159SOL    HW1  634   2.646   3.614   1.272
  159SOL    HW2  635   2.512   3.683   1.253
  159SOL     MW  636   2.593   3.666   1.225
  160SOL     OW  637   6.810   4.554   5.125
  160SOL    HW1  638   6.885   4.596   5.082
  160SOL    HW2  639   6.788   4.614   5.196
  160SOL     MW  640   6.817   4.567   5.129
  161SOL     OW  641   9.418   4.712   6.942
  161SOL    HW1  642   9.433   4.789   6.997
  161SOL    HW2  643   9.497   4.659   6.953
  161SOL     MW  644   9.430   4.715   6.950
  162SOL     OW  645   9.914   5.916   0.817
  162SOL    HW1  646   9.989   5.926   0.877
  162SOL    HW2  647   9.888   6.006   0.796
  162SOL     MW  648   9.920   5.929   0.822
  163SOL     OW  649   6.393   0.335  10.072
  163SOL    HW1  650   6.420   0.316   9.982
  163SOL    HW2  651   6.299   0.315  10.073
  163SOL     MW  652   6.384   0.330  10.060
  164SOL     OW  653   3.401   8.280   7.214
  164SOL    HW1  654   3.444   8.363   7.234
  164SOL    HW2  655   3.401   8.232   7.297
  164SOL     MW  656   3.407   8.284   7.227
  165SOL     OW  657   9.287   3.273   0.177
  165SOL    HW1  658   9.259   3.234   0.094
  165SOL    HW2  659   9.348   3.343   0.151
  165SOL     MW  660   9.291   3.277   0.163
  166SOL     OW  661   0.139   1.762   6.532
  166SOL    HW1  662   0.144   1.716   6.615
  166SOL    HW2  663   0.098   1.699   6.472
  166SOL     MW  664   0.135   1.748   6.535
  167SOL     OW  665   7.833   2.067   7.462
  167SOL    HW1  666   7.801   2.046   7.550
  167SOL    HW2  667   7.769   2.128   7.427
  167SOL     MW  668   7.821   2.072   7.469
  168SOL     OW  669   5.462   5.615   6.971
  168SOL    HW1  670   5.509   5.603   7.054
  168SOL    HW2  671   5.530   5.645   6.909
  168SOL     MW  672   5.477   5.617   6.973
  169SOL     OW  673   3.901   2.103   6.478
  169SOL    HW1  674   3.987   2.060   6.472
  169SOL    HW2  675   3.857   2.078   6.397
  169SOL     MW  676   3.907   2.094   6.467
  170SOL     OW  677   9.609   7.121   7.958
  170SOL    HW1  678   9.530   7.106   7.906
  170SOL    HW2  679   9.649   7.199   7.919
  170SOL     MW  680   9.604   7.129   7.947
  171SOL     OW  681   8.396   5.253   4.130
  171SOL    HW1  682   8.327   5.270   4.066
  171SOL    HW2  683   8.478   5.261   4.081
  171SOL     MW  684   8.398   5.256   4.116
  172SOL     OW  685   5.715   2.179   7.956
  172SOL    HW1  686   5.690   2.231   7.881
  172SOL    HW2  687   5.715   2.241   8.030
  172SOL     MW  688   5.712   2.193   7.956
  173SOL     OW  689   1.322   8.377   7.722
  173SOL    HW1  690   1.241   8.343   7.760
  173SOL    HW2  691   1.391   8.331   7.769
  173SOL     MW  692   1.320   8.366   7.733
  174SOL     OW  693   4.916   9.596   0.381
  174SOL    HW1  694   4.912   9.586   0.476
  174SOL    HW2  695   4.970   9.674   0.367
  174SOL     MW  696   4.922   9.605   0.391
  175SOL     OW  697   5.663   5.206   4.997
  175SOL    HW1  698   5.713   5.261   4.937
  175SOL    HW2  699   5.626   5.138   4.941
  175SOL     MW  700   5.664   5.205   4.982
  176SOL     OW  701   2.109   3.882  10.055
  176SOL    HW1  702   2.136   3.865  10.145
  176SOL    HW2  703   2.191   3.899  10.008
  176SOL     MW  704   2.123   3.882  10.060
  177SOL     OW  705   8.120   3.380   6.700
  177SOL    HW1  706   8.150   3.464   6.736
  177SOL    HW2  707   8.156   3.315   6.760
  177SOL     MW  708   8.128   3.382   6.712
  178SOL     OW  709   3.494   2.304   6.739
  178SOL    HW1  710   3.463   2.365   6.806
  178SOL    HW2  711   3.451   2.221   6.760
  178SOL     MW  712   3.484   2.301   6.750
  179SOL     OW  713   7.826   0.517   9.931
  179SOL    HW1  714   7.735   0.494   9.948
  179SOL    HW2  715   7.853   0.456   9.862
  179SOL     MW  716   7.818   0.506   9.924
  180SOL     OW  717   3.426   4.727   2.541
  180SOL    HW1  718   3.380   4.679   2.609
  180SOL    HW2  719   3.357   4.763   2.486
  180SOL     MW  720   3.411   4.725   2.542
  181SOL     OW  721   7.827   8.281   2.839
  181SOL    HW1  722   7.914   8.318   2.823
  181SOL    HW2  723   7.766   8.350   2.810
  181SOL     MW  724   7.830   8.295   2.833
  182SOL     OW  725   8.591   9.821   2.945
  182SOL    HW1  726   8.522   9.883   2.919
  182SOL    HW2  727   8.663   9.877   2.975
  182SOL     MW  728   8.591   9.836   2.945
  183SOL     OW  729   0.738   7.481   4.743
  183SOL    HW1  730   0.765   7.491   4.651
  183SOL    HW2  731   0.820   7.466   4.790
  183SOL     MW  732   0.752   7.481   4.737
  184SOL     OW  733   4.016   7.500   8.076
  184SOL    HW1  734   4.009   7.529   7.986
  184SOL    HW2  735   3.927   7.474   8.101
  184SOL     MW  736   4.004   7.500   8.068
  185SOL     OW  737   0.219   5.604   8.569
  185SOL    HW1  738   0.138   5.591   8.618
  185SOL    HW2  739   0.284   5.627   8.636
  185SOL     MW  740   0.217   5.605   8.584
  186SOL     OW  741   4.778   4.417   2.620
  186SOL    HW1  742   4.761   4.381   2.707
  186SOL    HW2  743   4.773   4.512   2.632
  186SOL     MW  744   4.775   4.424   2.633
  187SOL     OW  745   3.962   4.378   7.120
  187SOL    HW1  746   3.874   4.359   7.152
  187SOL    HW2  747   3.982   4.466   7.153
  187SOL     MW  748   3.953   4.387   7.128
  188SOL     OW  749   6.638   4.243   9.489
  188SOL    HW1  750   6.706   4.208   9.431
  188SOL    HW2  751   6.569   4.274   9.430
  188SOL     MW  752   6.638   4.243   9.474
  189SOL     OW  753  10.071   8.351   8.637
  189SOL    HW1  754  10.019   8.366   8.716
  189SOL    HW2  755  10.045   8.421   8.577
  189SOL     MW  756  10.061   8.362   8.640
  190SOL     OW  757   6.617   1.083   9.946
  190SOL    HW1  758   6.603   1.123  10.032
  190SOL    HW2  759   6.592   0.991   9.959
  190SOL     MW  760   6.612   1.076   9.959
  191SOL     OW  761   7.764   4.319   4.993
  191SOL    HW1  762   7.744   4.412   5.004
  191SOL    HW2  763   7.856   4.311   5.019
  191SOL     MW  764   7.774   4.330   4.998
  192SOL     OW  765   4.222   5.215   0.164
  192SOL    HW1  766   4.142   5.248   0.206
  192SOL    HW2  767   4.212   5.239   0.072
  192SOL     MW  768   4.210   5.222   0.158
  193SOL     OW  769   8.503   2.952   0.269
  193SOL    HW1  770   8.554   3.024   0.307
  193SOL    HW2  771   8.429   2.940   0.329
  193SOL     MW  772   8.500   2.960   0.281
  194SOL     OW  773   1.443   5.466   8.246
  194SOL    HW1  774   1.356   5.427   8.256
  194SOL    HW2  775   1.467   5.494   8.334
  194SOL     MW  776   1.435   5.464   8.259
  195SOL     OW  777   8.919   9.654   7.699
  195SOL    HW1  778   8.836   9.626   7.738
  195SOL    HW2  779   8.985   9.595   7.736
  195SOL     MW  780   8.917   9.643   7.709
  196SOL     OW  781   5.817   9.102   2.476
  196SOL    HW1  782   5.847   9.193   2.468
  196SOL    HW2  783   5.890   9.057   2.520
  196SOL     MW  784   5.830   9.108   2.481
  197SOL     OW  785   3.846   8.728   6.425
  197SOL    HW1  786   3.752   8.732   6.408
  197SOL    HW2  787   3.860   8.641   6.463
  197SOL     MW  788   3.836   8.717   6.427
  198SOL     OW  789   8.457   1.369   6.297
  198SOL    HW1  790   8.462   1.361   6.202
  198SOL    HW2  791   8.545   1.348   6.327
  198SOL     MW  792   8.469   1.366   6.289
  199SOL     OW  793   8.312   6.570   0.314
  199SOL    HW1  794   8.399   6.538   0.290
  199SOL    HW2  795   8.309   6.563   0.409
  199SOL     MW  796   8.323   6.565   0.323
  200SOL     OW  797   4.526   5.940   2.911
  200SOL    HW1  798   4.522   5.952   3.006
  200SOL    HW2  799   4.453   5.991   2.877
  200SOL     MW  800   4.516   5.948   2.919
  201SOL     OW  801   8.608   3.049   8.894
  201SOL    HW1  802   8.578   3.092   8.974
  201SOL    HW2  803   8.531   3.050   8.837
  201SOL     MW  804   8.594   3.055   8.897
  202SOL     OW  805   1.747   7.484   6.440
  202SOL    HW1  806   1.832   7.492   6.396
  202SOL    HW2  807   1.711   7.402   6.406
  202SOL     MW  808   1.753   7.474   6.430
  203SOL     OW  809   4.946   7.689   3.154
  203SOL    HW1  810   5.040   7.673   3.168
  203SOL    HW2  811   4.904   7.607   3.178
  203SOL     MW  812   4.953   7.677   3.159
  204SOL     OW  813   1.908   1.405   3.629
  204SOL    HW1  814   1.836   1.439   3.577
  204SOL    HW2  815   1.986   1.422   3.577
  204SOL     MW  816   1.909   1.412   3.616
  205SOL     OW  817   2.985   5.438   7.219
  205SOL    HW1  818   2.992   5.412   7.311
  205SOL    HW2  819   3.076   5.457   7.193
  205SOL     MW  820   2.998   5.437   7.227
  206SOL     OW  821   8.015   5.047   1.166
  206SOL    HW1  822   8.108   5.065   1.178
  206SOL    HW2  823   8.009   5.007   1.080
  206SOL     MW  824   8.026   5.044   1.157
  207SOL     OW  825   3.063   1.962   3.435
  207SOL    HW1  826   3.138   2.019   3.453
  207SOL    HW2  827   3.076   1.887   3.493
  207SOL     MW  828   3.074   1.960   3.445
  208SOL     OW  829   4.916   9.950   1.687
  208SOL    HW1  830   4.949   9.960   1.598
  208SOL    HW2  831   4.821   9.939   1.677
  208SOL     MW  832   4.908   9.950   1.675
  209SOL     OW  833   0.087   9.701   4.861
  209SOL    HW1  834  -0.007   9.698   4.880
  209SOL    HW2  835   0.117   9.782   4.902
  209SOL     MW  836   0.079   9.711   4.868
  210SOL     OW  837   1.258   7.208   0.679
  210SOL    HW1  838   1.256   7.272   0.608
  210SOL    HW2  839   1.277   7.124   0.636
  210SOL     MW  840   1.260   7.205   0.664
  211SOL     OW  841   2.509   9.064   8.712
  211SOL    HW1  842   2.415   9.079   8.717
  211SOL    HW2  843   2.545   9.146   8.679
  211SOL     MW  844   2.502   9.076   8.709
  212SOL     OW  845   2.901   6.874   1.364
  212SOL    HW1  846   2.991   6.895   1.386
  212SOL    HW2  847   2.891   6.781   1.385
  212SOL     MW  848   2.911   6.865   1.369
  213SOL     OW  849   3.364   4.739   6.225
  213SOL    HW1  850   3.270   4.719   6.224
  213SOL    HW2  851   3.369   4.828   6.260
  213SOL     MW  852   3.352   4.748   6.229
  214SOL     OW  853   5.805   3.141   9.477
  214SOL    HW1  854   5.813   3.214   9.415
  214SOL    HW2  855   5.895   3.110   9.488
  214SOL     MW  856   5.818   3.146   9.470
  215SOL     OW  857   6.607   6.935   6.320
  215SOL    HW1  858   6.657   7.014   6.298
  215SOL    HW2  859   6.587   6.945   6.413
  215SOL     MW  860   6.611   6.946   6.329
  216SOL     OW  861   4.955   1.220   3.218
  216SOL    HW1  862   4.953   1.139   3.166
  216SOL    HW2  863   4.864   1.234   3.243
  216SOL     MW  864   4.943   1.211   3.214
  217SOL     OW  865   5.057   6.547   5.933
  217SOL    HW1  866   5.009   6.485   5.987
  217SOL    HW2  867   5.062   6.626   5.986
  217SOL     MW  868   5.052   6.549   5.946
  218SOL     OW  869   7.848   8.030   0.242
  218SOL    HW1  870   7.898   7.966   0.192
  218SOL    HW2  871   7.881   8.020   0.332
  218SOL     MW  872   7.859   8.020   0.247
  219SOL     OW  873   1.039   2.829   8.984
  219SOL    HW1  874   0.950   2.839   8.950
  219SOL    HW2  875   1.095   2.855   8.911
  219SOL     MW  876   1.035   2.834   8.970
  220SOL     OW  877   1.988  10.020   6.311
  220SOL    HW1  878   1.936  10.072   6.372
  220SOL    HW2  879   2.013   9.942   6.361
  220SOL     MW  880   1.984  10.016   6.325
  221SOL     OW  881   8.029   6.082   6.690
  221SOL    HW1  882   7.939   6.052   6.700
  221SOL    HW2  883   8.022   6.176   6.673
  221SOL     MW  884   8.017   6.090   6.689
  222SOL     OW  885   4.471   3.187   4.378
  222SOL    HW1  886   4.521   3.265   4.401
  222SOL    HW2  887   4.525   3.114   4.407
  222SOL     MW  888   4.485   3.187   4.385
  223SOL     OW  889   1.325   9.725   6.744
  223SOL    HW1  890   1.375   9.698   6.821
  223SOL    HW2  891   1.338   9.820   6.740
  223SOL     MW  892   1.333   9.734   6.754
  224SOL     OW  893   6.419  10.117   9.155
  224SOL    HW1  894   6.468  10.069   9.222
  224SOL    HW2  895   6.408  10.204   9.191
  224SOL     MW  896   6.424  10.122   9.168
  225SOL     OW  897   5.366   2.115   4.220
  225SOL    HW1  898   5.375   2.037   4.165
  225SOL    HW2  899   5.360   2.080   4.309
  225SOL     MW  900   5.366   2.101   4.225
  226SOL     OW  901  10.123   3.858   2.589
  226SOL    HW1  902  10.077   3.788   2.635
  226SOL    HW2  903  10.198   3.815   2.549
  226SOL     MW  904  10.127   3.843   2.590
  227SOL     OW  905   5.153   3.179   6.081
  227SOL    HW1  906   5.059   3.174   6.068
  227SOL    HW2  907   5.164   3.203   6.173
  227SOL     MW  908   5.143   3.182   6.091
  228SOL     OW  909   6.922   4.876   2.271
  228SOL    HW1  910   6.958   4.919   2.193
  228SOL    HW2  911   6.865   4.942   2.310
  228SOL     MW  912   6.920   4.890   2.266
  229SOL     OW  913   7.733   3.292   8.759
  229SOL    HW1  914   7.792   3.357   8.798
  229SOL    HW2  915   7.670   3.272   8.828
  229SOL     MW  916   7.732   3.298   8.773
  230SOL     OW  917   4.202   1.299   9.534
  230SOL    HW1  918   4.200   1.359   9.459
  230SOL    HW2  919   4.114   1.306   9.572
  230SOL     MW  920   4.190   1.307   9.529
  231SOL     OW  921   0.625   5.148   8.103
  231SOL    HW1  922   0.594   5.178   8.188
  231SOL    HW2  923   0.585   5.208   8.040
  231SOL     MW  924   0.616   5.159   8.106
  232SOL     OW  925   8.631   9.973   6.311
  232SOL    HW1  926   8.726   9.971   6.318
  232SOL    HW2  927   8.601   9.910   6.377
  232SOL     MW  928   8.639   9.965   6.320
  233SOL     OW  929   4.096   3.326   1.390
  233SOL    HW1  930   4.049   3.260   1.339
  233SOL    HW2  931   4.148   3.275   1.452
  233SOL     MW  932   4.097   3.311   1.392
  234SOL     OW  933   5.669   3.025   9.693
  234SOL    HW1  934   5.729   3.083   9.646
  234SOL    HW2  935   5.608   2.994   9.626
  234SOL     MW  936   5.669   3.029   9.678
  235SOL     OW  937   9.437   8.019   4.052
  235SOL    HW1  938   9.457   7.935   4.094
  235SOL    HW2  939   9.393   7.994   3.970
  235SOL     MW  940   9.434   8.005   4.047
  236SOL     OW  941   2.856   6.371   9.412
  236SOL    HW1  942   2.777   6.344   9.364
  236SOL    HW2  943   2.923   6.380   9.344
  236SOL     MW  944   2.855   6.369   9.397
  237SOL     OW  945   7.152   4.738   4.714
  237SOL    HW1  946   7.226   4.794   4.691
  237SOL    HW2  947   7.106   4.724   4.632
  237SOL     MW  948   7.156   4.744   4.701
  238SOL     OW  949   0.642   5.002   6.019
  238SOL    HW1  950   0.579   5.073   6.029
  238SOL    HW2  951   0.667   4.978   6.108
  238SOL     MW  952   0.637   5.008   6.032
  239SOL     OW  953   6.225   5.894   5.203
  239SOL    HW1  954   6.169   5.823   5.169
  239SOL    HW2  955   6.289   5.909   5.134
  239SOL     MW  956   6.226   5.887   5.190
  240SOL     OW  957   2.810   8.201   0.893
  240SOL    HW1  958   2.752   8.153   0.951
  240SOL    HW2  959   2.893   8.205   0.941
  240SOL     MW  960   2.814   8.195   0.907
  241SOL     OW  961   0.729   8.704   7.101
  241SOL    HW1  962   0.687   8.638   7.156
  241SOL    HW2  963   0.821   8.678   7.098
  241SOL     MW  964   0.735   8.693   7.108
  242SOL     OW  965   6.710   8.089   8.914
  242SOL    HW1  966   6.671   8.171   8.945
  242SOL    HW2  967   6.804   8.102   8.925
  242SOL     MW  968   6.717   8.101   8.919
  243SOL     OW  969   2.648   6.982   2.715
  243SOL    HW1  970   2.589   7.019   2.649
  243SOL    HW2  971   2.597   6.985   2.796
  243SOL     MW  972   2.634   6.987   2.717
  244SOL     OW  973   9.786   0.151   2.505
  244SOL    HW1  974   9.858   0.109   2.458
  244SOL    HW2  975   9.824   0.230   2.543
  244SOL     MW  976   9.800   0.156   2.504
  245SOL     OW  977   6.320   0.390   5.535
  245SOL    HW1  978   6.311   0.302   5.573
  245SOL    HW2  979   6.233   0.411   5.501
  245SOL     MW  980   6.308   0.381   5.535
  246SOL     OW  981   5.034  10.067   4.604
  246SOL    HW1  982   5.109  10.007   4.608
  246SOL    HW2  983   5.061  10.142   4.657
  246SOL     MW  984   5.047  10.069   4.611
  247SOL     OW  985   8.156   4.020   3.005
  247SOL    HW1  986   8.226   4.085   3.008
  247SOL    HW2  987   8.117   4.022   3.093
  247SOL     MW  988   8.160   4.028   3.017
  248SOL     OW  989   4.000   6.310   5.467
  248SOL    HW1  990   4.039   6.275   5.386
  248SOL    HW2  991   3.971   6.232   5.515
  248SOL     MW  992   4.001   6.295   5.463
  249SOL     OW  993   3.540   0.763   9.298
  249SOL    HW1  994   3.494   0.847   9.305
  249SOL    HW2  995   3.622   0.785   9.254
  249SOL     MW  996   3.545   0.777   9.293
  250SOL     OW  997   2.751   6.561   5.275
  250SOL    HW1  998   2.844   6.580   5.290
  250SOL    HW2  999   2.749   6.521   5.188
  250SOL     MW 1000   2.763   6.558   5.266
  251SOL     OW 1001   3.947   2.334   0.696
  251SOL    HW1 1002   3.964   2.392   0.621
  251SOL    HW2 1003   3.982   2.381   0.771
  251SOL     MW 1004   3.954   2.347   0.696
  252SOL     OW 1005   6.551   6.658   6.570
  252SOL    HW1 1006   6.577   6.647   6.479
  252SOL    HW2 1007   6.610   6.602   6.620
  252SOL     MW 1008   6.562   6.650   6.565
  253SOL     OW 1009   8.278   0.166   6.392
  253SOL    HW1 1010   8.338   0.109   6.345
  253SOL    HW2 1011   8.335   0.233   6.432
  253SOL     MW 1012   8.293   0.167   6.391
  254SOL     OW 1013   1.264   8.472   8.860
  254SOL    HW1 1014   1.195   8.424   8.905
  254SOL    HW2 1015   1.317   8.510   8.930
  254SOL     MW 1016   1.262   8.470   8.875
  255SOL     OW 1017   2.519   6.915   7.251
  255SOL    HW1 1018   2.424   6.922   7.241
  255SOL    HW2 1019   2.532   6.892   7.343
  255SOL     MW 1020   2.509   6.913   7.261
  256SOL     OW 1021   6.731   3.348   8.155
  256SOL    HW1 1022   6.822   3.374   8.145
  256SOL    HW2 1023   6.686   3.388   8.081
  256SOL     MW 1024   6.737   3.356   8.144
  257SOL     OW 1025   5.858   4.080   7.749
  257SOL    HW1 1026   5.826   4.160   7.706
  257SOL    HW2 1027   5.902   4.031   7.679
  257SOL     MW 1028   5.860   4.084   7.734
  258SOL     OW 1029   2.090   6.044   4.159
  258SOL    HW1 1030   2.004   6.074   4.131
  258SOL    HW2 1031   2.080   5.949   4.170
  258SOL     MW 1032   2.077   6.036   4.157
  259SOL     OW 1033   2.981  -0.013   9.681
  259SOL    HW1 1034   2.885  -0.014   9.678
  259SOL    HW2 1035   3.003   0.075   9.714
  259SOL     MW 1036   2.972  -0.002   9.685
  260SOL     OW 1037   3.063   4.432   3.251
  260SOL    HW1 1038   3.014   4.352   3.232
  260SOL    HW2 1039   3.006   4.503   3.221
  260SOL     MW 1040   3.049   4.431   3.245
  261SOL     OW 1041   5.835   9.116   4.996
  261SOL    HW1 1042   5.911   9.121   5.055
  261SOL    HW2 1043   5.847   9.191   4.937
  261SOL     MW 1044   5.846   9.126   4.996
  262SOL     OW 1045   6.159   5.753   1.804
  262SOL    HW1 1046   6.253   5.740   1.818
  262SOL    HW2 1047   6.122   5.665   1.805
  262SOL     MW 1048   6.166   5.740   1.806
  263SOL     OW 1049   5.920   7.305   0.842
  263SOL    HW1 1050   5.984   7.328   0.909
  263SOL    HW2 1051   5.937   7.213   0.822
  263SOL     MW 1052   5.930   7.296   0.848
  264SOL     OW 1053   1.305   9.498   4.608
  264SOL    HW1 1054   1.255   9.535   4.681
  264SOL    HW2 1055   1.292   9.559   4.536
  264SOL     MW 1056   1.297   9.510   4.608
  265SOL     OW 1057   9.324   1.950   1.309
  265SOL    HW1 1058   9.336   1.938   1.403
  265SOL    HW2 1059   9.377   2.027   1.286
  265SOL     MW 1060   9.332   1.958   1.318
  266SOL     OW 1061   1.432   0.957   0.570
  266SOL    HW1 1062   1.417   0.863   0.577
  266SOL    HW2 1063   1.345   0.996   0.579
  266SOL     MW 1064   1.419   0.950   0.572
  267SOL     OW 1065   7.044   4.164   7.384
  267SOL    HW1 1066   7.108   4.232   7.366
  267SOL    HW2 1067   7.075   4.122   7.465
  267SOL     MW 1068   7.056   4.167   7.392
  268SOL     OW 1069   2.420   7.673   7.492
  268SOL    HW1 1070   2.482   7.650   7.560
  268SOL    HW2 1071   2.467   7.659   7.410
  268SOL     MW 1072   2.434   7.668   7.490
  269SOL     OW 1073   3.204   7.684   4.137
  269SOL    HW1 1074   3.172   7.619   4.200
  269SOL    HW2 1075   3.130   7.742   4.122
  269SOL     MW 1076   3.190   7.683   4.144
  270SOL     OW 1077   4.982   6.826   3.875
  270SOL    HW1 1078   5.034   6.755   3.913
  270SOL    HW2 1079   4.911   6.781   3.829
  270SOL     MW 1080   4.980   6.811   3.874
  271SOL     OW 1081   6.459   7.724   0.126
  271SOL    HW1 1082   6.421   7.669   0.057
  271SOL    HW2 1083   6.399   7.798   0.134
  271SOL     MW 1084   6.447   7.726   0.118
  272SOL     OW 1085   9.651   8.216   5.671
  272SOL    HW1 1086   9.677   8.128   5.644
  272SOL    HW2 1087   9.653   8.268   5.591
  272SOL     MW 1088   9.654   8.211   5.658
  273SOL     OW 1089   2.284   0.020   8.352
  273SOL    HW1 1090   2.266   0.015   8.446
  273SOL    HW2 1091   2.201   0.050   8.314
  273SOL     MW 1092   2.271   0.023   8.359
  274SOL     OW 1093   5.336   6.859   8.127
  274SOL    HW1 1094   5.330   6.952   8.104
  274SOL    HW2 1095   5.314   6.813   8.046
  274SOL     MW 1096   5.333   6.865   8.114
  275SOL     OW 1097   8.846   3.036   8.764
  275SOL    HW1 1098   8.764   3.037   8.812
  275SOL    HW2 1099   8.911   3.071   8.825
  275SOL     MW 1100   8.844   3.041   8.778
  276SOL     OW 1101   0.038   6.136   7.880
  276SOL    HW1 1102   0.029   6.231   7.876
  276SOL    HW2 1103  -0.043   6.106   7.922
  276SOL     MW 1104   0.026   6.145   7.885
  277SOL     OW 1105   9.318   1.089   6.472
  277SOL    HW1 1106   9.283   1.123   6.389
  277SOL    HW2 1107   9.406   1.126   6.477
  277SOL     MW 1108   9.325   1.098   6.462
  278SOL     OW 1109  10.127   7.689   2.146
  278SOL    HW1 1110  10.165   7.606   2.177
  278SOL    HW2 1111  10.203   7.747   2.136
  278SOL     MW 1112  10.142   7.685   2.149
  279SOL     OW 1113   1.087   1.853   1.863
  279SOL    HW1 1114   1.072   1.764   1.830
  279SOL    HW2 1115   1.175   1.876   1.834
  279SOL     MW 1116   1.096   1.844   1.855
  280SOL     OW 1117   2.146   5.705   9.404
  280SOL    HW1 1118   2.205   5.670   9.470
  280SOL    HW2 1119   2.058   5.687   9.438
  280SOL     MW 1120   2.142   5.698   9.417
  281SOL     OW 1121   7.437   0.188   5.099
  281SOL    HW1 1122   7.388   0.269   5.083
  281SOL    HW2 1123   7.448   0.186   5.194
  281SOL     MW 1124   7.432   0.198   5.109
  282SOL     OW 1125   1.928   5.170   6.704
  282SOL    HW1 1126   2.012   5.191   6.747
  282SOL    HW2 1127   1.867   5.158   6.777
  282SOL     MW 1128   1.931   5.171   6.719
  283SOL     OW 1129   4.937   6.017   3.725
  283SOL    HW1 1130   5.007   6.009   3.790
  283SOL    HW2 1131   4.981   6.002   3.641
  283SOL     MW 1132   4.952   6.014   3.723
  284SOL     OW 1133  10.127   6.230   7.007
  284SOL    HW1 1134  10.098   6.248   7.096
  284SOL    HW2 1135  10.222   6.234   7.011
  284SOL     MW 1136  10.136   6.233   7.019
  285SOL     OW 1137   0.559  10.025   2.450
  285SOL    HW1 1138   0.613  10.104   2.460
  285SOL    HW2 1139   0.585   9.969   2.523
  285SOL     MW 1140   0.569  10.028   2.461
  286SOL     OW 1141   6.550   6.242   4.587
  286SOL    HW1 1142   6.514   6.301   4.653
  286SOL    HW2 1143   6.645   6.248   4.598
  286SOL     MW 1144   6.558   6.250   4.596
  287SOL     OW 1145   7.817   7.176   0.362
  287SOL    HW1 1146   7.855   7.254   0.321
  287SOL    HW2 1147   7.887   7.143   0.418
  287SOL     MW 1148   7.831   7.182   0.364
  288SOL     OW 1149   7.318   2.415   1.311
  288SOL    HW1 1150   7.343   2.367   1.390
  288SOL    HW2 1151   7.374   2.379   1.242
  288SOL     MW 1152   7.328   2.404   1.313
  289SOL     OW 1153   8.759   1.350   9.223
  289SOL    HW1 1154   8.725   1.263   9.245
  289SOL    HW2 1155   8.806   1.337   9.141
  289SOL     MW 1156   8.761   1.337   9.215
  290SOL     OW 1157   9.552   5.118   2.236
  290SOL    HW1 1158   9.464   5.143   2.209
  290SOL    HW2 1159   9.592   5.199   2.268
  290SOL     MW 1160   9.546   5.131   2.236
  291SOL     OW 1161   2.677   3.767   8.357
  291SOL    HW1 1162   2.664   3.845   8.303
  291SOL    HW2 1163   2.593   3.722   8.355
  291SOL     MW 1164   2.665   3.771   8.350
  292SOL     OW 1165   3.930   1.475   1.955
  292SOL    HW1 1166   3.899   1.505   1.869
  292SOL    HW2 1167   3.881   1.395   1.972
  292SOL     MW 1168   3.920   1.469   1.946
  293SOL     OW 1169   2.268   6.979   7.401
  293SOL    HW1 1170   2.342   6.951   7.455
  293SOL    HW2 1171   2.203   7.010   7.463
  293SOL     MW 1172   2.269   6.979   7.416
  294SOL     OW 1173   2.442   2.396   0.309
  294SOL    HW1 1174   2.458   2.352   0.226
  294SOL    HW2 1175   2.497   2.350   0.372
  294SOL     MW 1176   2.451   2.384   0.306
  295SOL     OW 1177   3.337   4.642   3.751
  295SOL    HW1 1178   3.326   4.556   3.712
  295SOL    HW2 1179   3.392   4.628   3.828
  295SOL     MW 1180   3.343   4.629   3.756
  296SOL     OW 1181   9.730   6.697   7.278
  296SOL    HW1 1182   9.817   6.663   7.258
  296SOL    HW2 1183   9.684   6.694   7.194
  296SOL     MW 1184   9.735   6.692   7.265
  297SOL     OW 1185   6.108   0.175   8.474
  297SOL    HW1 1186   6.113   0.202   8.566
  297SOL    HW2 1187   6.195   0.138   8.456
  297SOL     MW 1188   6.120   0.174   8.484
  298SOL     OW 1189   7.735   4.017   9.685
  298SOL    HW1 1190   7.771   4.104   9.698
  298SOL    HW2 1191   7.713   3.986   9.773
  298SOL     MW 1192   7.737   4.024   9.698
  299SOL     OW 1193   9.656   3.298   6.644
  299SOL    HW1 1194   9.679   3.216   6.601
  299SOL    HW2 1195   9.705   3.365   6.597
  299SOL     MW 1196   9.665   3.296   6.633
  300SOL     OW 1197   9.725   3.530   6.494
  300SOL    HW1 1198   9.631   3.531   6.512
  300SOL    HW2 1199   9.732   3.559   6.403
  300SOL     MW 1200   9.714   3.533   6.485
  301SOL     OW 1201   2.561   6.975   2.979
  301SOL    HW1 1202   2.570   7.056   3.029
  301SOL    HW2 1203   2.649   6.936   2.981
  301SOL     MW 1204   2.574   6.980   2.986
  302SOL     OW 1205   6.645   2.579   2.531
  302SOL    HW1 1206   6.603   2.543   2.609
  302SOL    HW2 1207   6.611   2.525   2.459
  302SOL     MW 1208   6.635   2.568   2.532
  303SOL     OW 1209   0.808   1.429   2.019
  303SOL    HW1 1210   0.825   1.511   2.064
  303SOL    HW2 1211   0.713   1.426   2.008
  303SOL     MW 1212   0.798   1.439   2.023
  304SOL     OW 1213   5.547   2.775   9.270
  304SOL    HW1 1214   5.513   2.712   9.334
  304SOL    HW2 1215   5.564   2.854   9.321
  304SOL     MW 1216   5.545   2.777   9.285
  305SOL     OW 1217   1.805   9.587   4.088
  305SOL    HW1 1218   1.751   9.664   4.071
  305SOL    HW2 1219   1.867   9.615   4.156
  305SOL     MW 1220   1.806   9.600   4.094
  306SOL     OW 1221   8.626   5.686   7.447
  306SOL    HW1 1222   8.661   5.597   7.446
  306SOL    HW2 1223   8.532   5.675   7.432
  306SOL     MW 1224   8.619   5.674   7.445
  307SOL     OW 1225   1.226   3.012   9.803
  307SOL    HW1 1226   1.163   3.038   9.735
  307SOL    HW2 1227   1.303   2.984   9.754
  307SOL     MW 1228   1.228   3.012   9.788
  308SOL     OW 1229   9.756   8.481   6.089
  308SOL    HW1 1230   9.781   8.481   5.997
  308SOL    HW2 1231   9.811   8.548   6.129
  308SOL     MW 1232   9.766   8.490   6.083
  309SOL     OW 1233   1.662   4.964   8.817
  309SOL    HW1 1234   1.743   4.918   8.793
  309SOL    HW2 1235   1.665   5.045   8.765
  309SOL     MW 1236   1.673   4.969   8.807
  310SOL     OW 1237   5.420   0.022   1.039
  310SOL    HW1 1238   5.334   0.044   1.074
  310SOL    HW2 1239   5.401  -0.030   0.961
  310SOL     MW 1240   5.406   0.018   1.034
  311SOL     OW 1241   0.889   3.380   3.838
  311SOL    HW1 1242   0.972   3.416   3.806
  311SOL    HW2 1243   0.903   3.285   3.839
  311SOL     MW 1244   0.902   3.373   3.834
  312SOL     OW 1245   5.411   1.922   2.940
  312SOL    HW1 1246   5.381   1.851   2.998
  312SOL    HW2 1247   5.337   1.940   2.883
  312SOL     MW 1248   5.398   1.915   2.940
  313SOL     OW 1249   5.534   5.018   4.843
  313SOL    HW1 1250   5.530   4.923   4.828
  313SOL    HW2 1251   5.448   5.040   4.879
  313SOL     MW 1252   5.522   5.008   4.846
  314SOL     OW 1253   1.966   0.872   2.266
  314SOL    HW1 1254   1.953   0.777   2.274
  314SOL    HW2 1255   2.039   0.881   2.205
  314SOL     MW 1256   1.974   0.861   2.259
  315SOL     OW 1257   2.437   7.448   6.222
  315SOL    HW1 1258   2.473   7.411   6.141
  315SOL    HW2 1259   2.504   7.428   6.288
  315SOL     MW 1260   2.450   7.441   6.220
  316SOL     OW 1261   9.700   0.100   1.011
  316SOL    HW1 1262   9.638   0.173   1.017
  316SOL    HW2 1263   9.656   0.027   1.054
  316SOL     MW 1264   9.687   0.100   1.017
  317SOL     OW 1265   0.602   0.337   2.929
  317SOL    HW1 1266   0.564   0.416   2.892
  317SOL    HW2 1267   0.610   0.277   2.856
  317SOL     MW 1268   0.598   0.339   2.915
  318SOL     OW 1269   7.337   1.674   2.198
  318SOL    HW1 1270   7.362   1.763   2.222
  318SOL    HW2 1271   7.396   1.618   2.248
  318SOL     MW 1272   7.348   1.678   2.207
  319SOL     OW 1273   7.776   5.010   0.775
  319SOL    HW1 1274   7.705   5.002   0.838
  319SOL    HW2 1275   7.756   4.945   0.708
  319SOL     MW 1276   7.765   5.001   0.774
  320SOL     OW 1277   9.147   4.701   6.901
  320SOL    HW1 1278   9.136   4.670   6.811
  320SOL    HW2 1279   9.241   4.695   6.917
  320SOL     MW 1280   9.158   4.696   6.891
  321SOL     OW 1281   6.748   0.478   7.256
  321SOL    HW1 1282   6.840   0.455   7.262
  321SOL    HW2 1283   6.704   0.415   7.312
  321SOL     MW 1284   6.754   0.467   7.264
  322SOL     OW 1285   4.919   9.217   9.724
  322SOL    HW1 1286   4.998   9.192   9.678
  322SOL    HW2 1287   4.915   9.159   9.800
  322SOL     MW 1288   4.929   9.206   9.728
  323SOL     OW 1289   7.392   2.926  10.082
  323SOL    HW1 1290   7.350   2.868  10.018
  323SOL    HW2 1291   7.370   3.015  10.052
  323SOL     MW 1292   7.384   2.930  10.070
  324SOL     OW 1293   2.288   5.424   6.968
  324SOL    HW1 1294   2.267   5.497   7.027
  324SOL    HW2 1295   2.381   5.436   6.948
  324SOL     MW 1296   2.298   5.435   6.973
  325SOL     OW 1297   7.407   6.860   4.868
  325SOL    HW1 1298   7.392   6.807   4.790
  325SOL    HW2 1299   7.428   6.947   4.835
  325SOL     MW 1300   7.408   6.864   4.854
  326SOL     OW 1301   9.783   3.646   8.165
  326SOL    HW1 1302   9.690   3.627   8.151
  326SOL    HW2 1303   9.829   3.573   8.124
  326SOL     MW 1304   9.777   3.634   8.158
  327SOL     OW 1305   1.371   9.511   9.641
  327SOL    HW1 1306   1.396   9.553   9.723
  327SOL    HW2 1307   1.445   9.525   9.583
  327SOL     MW 1308   1.383   9.518   9.644
  328SOL     OW 1309   7.215   5.231   3.393
  328SOL    HW1 1310   7.223   5.326   3.384
  328SOL    HW2 1311   7.121   5.215   3.394
  328SOL     MW 1312   7.204   5.241   3.392
  329SOL     OW 1313   2.917   5.638   2.569
  329SOL    HW1 1314   2.845   5.701   2.573
  329SOL    HW2 1315   2.990   5.688   2.533
  329SOL     MW 1316   2.917   5.653   2.565
  330SOL     OW 1317   8.777  10.013   3.029
  330SOL    HW1 1318   8.762  10.103   3.003
  330SOL    HW2 1319   8.841  10.018   3.100
  330SOL     MW 1320   8.783  10.025   3.035
  331SOL     OW 1321   6.274   2.602   9.351
  331SOL    HW1 1322   6.288   2.521   9.401
  331SOL    HW2 1323   6.204   2.648   9.397
  331SOL     MW 1324   6.267   2.597   9.363
  332SOL     OW 1325   4.446   7.604   9.929
  332SOL    HW1 1326   4.390   7.527   9.920
  332SOL    HW2 1327   4.516   7.591   9.866
  332SOL     MW 1328   4.448   7.592   9.920
  333SOL     OW 1329   2.415   2.432   3.278
  333SOL    HW1 1330   2.425   2.405   3.187
  333SOL    HW2 1331   2.497   2.404   3.321
  333SOL     MW 1332   2.427   2.425   3.272
  334SOL     OW 1333   3.531   2.208   2.007
  334SOL    HW1 1334   3.557   2.242   2.092
  334SOL    HW2 1335   3.532   2.113   2.017
  334SOL     MW 1336   3.534   2.200   2.019
  335SOL     OW 1337   3.964   5.479   7.673
  335SOL    HW1 1338   4.000   5.550   7.727
  335SOL    HW2 1339   3.870   5.496   7.671
  335SOL     MW 1340   3.957   5.491   7.680
  336SOL     OW 1341   6.207   6.456   3.336
  336SOL    HW1 1342   6.290   6.426   3.373
  336SOL    HW2 1343   6.228   6.480   3.246
  336SOL     MW 1344   6.220   6.455   3.329
  337SOL     OW 1345   4.216   5.115   4.942
  337SOL    HW1 1346   4.155   5.182   4.910
  337SOL    HW2 1347   4.299   5.138   4.901
  337SOL     MW 1348   4.219   5.127   4.933
  338SOL     OW 1349   8.135   3.405   1.605
  338SOL    HW1 1350   8.216   3.358   1.582
  338SOL    HW2 1351   8.106   3.443   1.522
  338SOL     MW 1352   8.142   3.404   1.591
  339SOL     OW 1353   0.665   0.857   3.451
  339SOL    HW1 1354   0.654   0.774   3.497
  339SOL    HW2 1355   0.665   0.834   3.358
  339SOL     MW 1356   0.664   0.844   3.445
  340SOL     OW 1357   1.346   2.117   2.323
  340SOL    HW1 1358   1.263   2.071   2.332
  340SOL    HW2 1359   1.333   2.199   2.371
  340SOL     MW 1360   1.334   2.122   2.330
  341SOL     OW 1361   0.160   9.935   4.979
  341SOL    HW1 1362   0.213   9.945   5.058
  341SOL    HW2 1363   0.186  10.009   4.924
  341SOL     MW 1364   0.170   9.946   4.982
  342SOL     OW 1365   9.459   1.707   0.283
  342SOL    HW1 1366   9.394   1.733   0.348
  342SOL    HW2 1367   9.515   1.643   0.328
  342SOL     MW 1368   9.458   1.702   0.297
  343SOL     OW 1369   0.615   7.960   1.076
  343SOL    HW1 1370   0.520   7.948   1.066
  343SOL    HW2 1371   0.652   7.874   1.058
  343SOL     MW 1372   0.607   7.947   1.072
  344SOL     OW 1373   3.171   1.823   8.868
  344SOL    HW1 1374   3.252   1.871   8.852
  344SOL    HW2 1375   3.142   1.851   8.954
  344SOL     MW 1376   3.177   1.833   8.877
  345SOL     OW 1377   7.829   0.776   9.826
  345SOL    HW1 1378   7.910   0.816   9.859
  345SOL    HW2 1379   7.829   0.689   9.866
  345SOL     MW 1380   7.840   0.770   9.835
  346SOL     OW 1381   6.338   0.570   7.687
  346SOL    HW1 1382   6.249   0.584   7.717
  346SOL    HW2 1383   6.331   0.563   7.592
  346SOL     MW 1384   6.326   0.571   7.679
  347SOL     OW 1385   9.509   6.881   9.237
  347SOL    HW1 1386   9.424   6.900   9.276
  347SOL    HW2 1387   9.546   6.812   9.293
  347SOL     MW 1388   9.503   6.875   9.250
  348SOL     OW 1389   2.476   2.770   7.199
  348SOL    HW1 1390   2.448   2.687   7.162
  348SOL    HW2 1391   2.394   2.816   7.220
  348SOL     MW 1392   2.462   2.765   7.197
  349SOL     OW 1393   5.589   7.015   0.405
  349SOL    HW1 1394   5.641   7.059   0.472
  349SOL    HW2 1395   5.520   6.970   0.454
  349SOL     MW 1396   5.587   7.015   0.420
  350SOL     OW 1397   5.920   3.906   0.715
  350SOL    HW1 1398   5.977   3.829   0.710
  350SOL    HW2 1399   5.956   3.957   0.787
  350SOL     MW 1400   5.932   3.902   0.724
  351SOL     OW 1401   1.574   8.424   6.784
  351SOL    HW1 1402   1.621   8.346   6.755
  351SOL    HW2 1403   1.483   8.395   6.795
  351SOL     MW 1404   1.568   8.410   6.782
  352SOL     OW 1405   6.073   2.852   9.714
  352SOL    HW1 1406   5.987   2.845   9.756
  352SOL    HW2 1407   6.080   2.771   9.663
  352SOL     MW 1408   6.063   2.840   9.713
  353SOL     OW 1409   7.859   5.650   5.273
  353SOL    HW1 1410   7.858   5.599   5.354
  353SOL    HW2 1411   7.767   5.664   5.252
  353SOL     MW 1412   7.847   5.645   5.281
  354SOL     OW 1413   4.812   8.266   0.821
  354SOL    HW1 1414   4.846   8.218   0.746
  354SOL    HW2 1415   4.805   8.357   0.791
  354SOL     MW 1416   4.816   8.272   0.808
  355SOL     OW 1417   0.398   3.159   1.518
  355SOL    HW1 1418   0.406   3.064   1.526
  355SOL    HW2 1419   0.304   3.175   1.512
  355SOL     MW 1420   0.387   3.149   1.518
  356SOL     OW 1421   1.800   4.385   3.312
  356SOL    HW1 1422   1.895   4.375   3.306
  356SOL    HW2 1423   1.766   4.347   3.232
  356SOL     MW 1424   1.807   4.379   3.301
  357SOL     OW 1425   3.143   0.817   7.078
  357SOL    HW1 1426   3.170   0.804   7.169
  357SOL    HW2 1427   3.163   0.909   7.060
  357SOL     MW 1428   3.149   0.827   7.088
  358SOL     OW 1429   5.206   5.625   3.353
  358SOL    HW1 1430   5.210   5.530   3.339
  358SOL    HW2 1431   5.193   5.634   3.448
  358SOL     MW 1432   5.205   5.614   3.364
  359SOL     OW 1433   6.429   7.053   0.853
  359SOL    HW1 1434   6.377   7.052   0.773
  359SOL    HW2 1435   6.401   6.976   0.901
  359SOL     MW 1436   6.419   7.043   0.849
  360SOL     OW 1437   6.408   2.557   8.436
  360SOL    HW1 1438   6.483   2.523   8.484
  360SOL    HW2 1439   6.446   2.609   8.365
  360SOL     MW 1440   6.423   2.560   8.433
  361SOL     OW 1441   8.680   4.334   2.141
  361SOL    HW1 1442   8.768   4.334   2.104
  361SOL    HW2 1443   8.633   4.266   2.094
  361SOL     MW 1444   8.685   4.325   2.130
  362SOL     OW 1445   9.688   3.025   7.534
  362SOL    HW1 1446   9.768   2.980   7.559
  362SOL    HW2 1447   9.688   3.106   7.585
  362SOL     MW 1448   9.698   3.029   7.544
  363SOL     OW 1449   9.859   8.550   3.989
  363SOL    HW1 1450   9.823   8.639   3.990
  363SOL    HW2 1451   9.910   8.546   3.909
  363SOL     MW 1452   9.861   8.561   3.979
  364SOL     OW 1453   6.950  10.159   1.509
  364SOL    HW1 1454   6.998  10.081   1.536
  364SOL    HW2 1455   7.010  10.204   1.449
  364SOL     MW 1456   6.964  10.155   1.505
  365SOL     OW 1457   7.385   8.860   8.156
  365SOL    HW1 1458   7.443   8.788   8.182
  365SOL    HW2 1459   7.334   8.880   8.235
  365SOL     MW 1460   7.386   8.853   8.169
  366SOL     OW 1461   1.259   6.876   5.850
  366SOL    HW1 1462   1.207   6.808   5.806
  366SOL    HW2 1463   1.255   6.951   5.791
  366SOL     MW 1464   1.252   6.877   5.837
  367SOL     OW 1465   1.583   7.791   8.066
  367SOL    HW1 1466   1.644   7.720   8.046
  367SOL    HW2 1467   1.499   7.747   8.077
  367SOL     MW 1468   1.580   7.776   8.065
  368SOL     OW 1469   7.686   4.560   6.906
  368SOL    HW1 1470   7.633   4.483   6.928
  368SOL    HW2 1471   7.668   4.622   6.976
  368SOL     MW 1472   7.677   4.558   6.918
  369SOL     OW 1473   2.983   6.698   9.276
  369SOL    HW1 1474   2.923   6.759   9.233
  369SOL    HW2 1475   2.941   6.680   9.360
  369SOL     MW 1476   2.970   6.703   9.281
  370SOL     OW 1477   8.211   2.705   0.707
  370SOL    HW1 1478   8.237   2.796   0.720
  370SOL    HW2 1479   8.237   2.661   0.788
  370SOL     MW 1480   8.218   2.711   0.719
  371SOL     OW 1481   5.720   2.235   8.418
  371SOL    HW1 1482   5.810   2.208   8.399
  371SOL    HW2 1483   5.698   2.191   8.500
  371SOL     MW 1484   5.729   2.226   8.426
  372SOL     OW 1485   8.660   4.811   0.955
  372SOL    HW1 1486   8.721   4.858   1.012
  372SOL    HW2 1487   8.711   4.738   0.921
  372SOL     MW 1488   8.674   4.808   0.958
  373SOL     OW 1489   1.499   8.974   3.676
  373SOL    HW1 1490   1.575   8.967   3.619
  373SOL    HW2 1491   1.445   8.898   3.654
  373SOL     MW 1492   1.502   8.963   3.666
  374SOL     OW 1493   3.029   7.366   3.938
  374SOL    HW1 1494   2.950   7.388   3.890
  374SOL    HW2 1495   3.037   7.271   3.930
  374SOL     MW 1496   3.020   7.356   3.931
  375SOL     OW 1497   8.265   3.210   7.833
  375SOL    HW1 1498   8.326   3.256   7.775
  375SOL    HW2 1499   8.302   3.122   7.841
  375SOL     MW 1500   8.278   3.205   7.827
  376SOL     OW 1501   3.730   6.516   7.173
  376SOL    HW1 1502   3.675   6.552   7.104
  376SOL    HW2 1503   3.709   6.423   7.175
  376SOL     MW 1504   3.720   6.509   7.164
  377SOL     OW 1505   5.811   5.496   6.650
  377SOL    HW1 1506   5.855   5.516   6.567
  377SOL    HW2 1507   5.880   5.456   6.704
  377SOL     MW 1508   5.826   5.494   6.646
  378SOL     OW 1509   7.738   8.688   3.617
  378SOL    HW1 1510   7.687   8.654   3.691
  378SOL    HW2 1511   7.755   8.611   3.562
  378SOL     MW 1512   7.734   8.673   3.620
  379SOL     OW 1513   4.721   2.010   0.425
  379SOL    HW1 1514   4.697   2.095   0.461
  379SOL    HW2 1515   4.752   2.030   0.336
  379SOL     MW 1516   4.722   2.024   0.418
  380SOL     OW 1517   8.788   3.121   8.498
  380SOL    HW1 1518   8.799   3.123   8.593
  380SOL    HW2 1519   8.825   3.037   8.472
  380SOL     MW 1520   8.794   3.111   8.507
  381SOL     OW 1521   2.037   8.296   6.192
  381SOL    HW1 1522   2.124   8.336   6.190
  381SOL    HW2 1523   1.988   8.351   6.253
  381SOL     MW 1524   2.042   8.308   6.200
  382SOL     OW 1525   0.655   0.278   2.655
  382SOL    HW1 1526   0.659   0.208   2.590
  382SOL    HW2 1527   0.747   0.303   2.669
  382SOL     MW 1528   0.668   0.272   2.649
  383SOL     OW 1529   1.325   2.855   5.833
  383SOL    HW1 1530   1.322   2.795   5.759
  383SOL    HW2 1531   1.258   2.921   5.814
  383SOL     MW 1532   1.316   2.856   5.821
  384SOL     OW 1533   0.064   6.934   6.293
  384SOL    HW1 1534   0.047   6.843   6.315
  384SOL    HW2 1535   0.022   6.948   6.209
  384SOL     MW 1536   0.057   6.924   6.285
  385SOL     OW 1537   4.519   2.464   1.687
  385SOL    HW1 1538   4.547   2.462   1.779
  385SOL    HW2 1539   4.449   2.529   1.684
  385SOL     MW 1540   4.514   2.472   1.699
  386SOL     OW 1541   6.163   2.335   1.485
  386SOL    HW1 1542   6.192   2.330   1.576
  386SOL    HW2 1543   6.243   2.320   1.433
  386SOL     MW 1544   6.177   2.333   1.490
  387SOL     OW 1545   0.699   5.869   5.645
  387SOL    HW1 1546   0.748   5.862   5.562
  387SOL    HW2 1547   0.626   5.809   5.634
  387SOL     MW 1548   0.696   5.860   5.633
  388SOL     OW 1549   3.516   3.915   4.535
  388SOL    HW1 1550   3.590   3.855   4.522
  388SOL    HW2 1551   3.468   3.877   4.608
  388SOL     MW 1552   3.520   3.902   4.542
  389SOL     OW 1553   8.904   8.622   4.116
  389SOL    HW1 1554   8.825   8.572   4.137
  389SOL    HW2 1555   8.959   8.612   4.193
  389SOL     MW 1556   8.901   8.614   4.129
  390SOL     OW 1557   5.981   5.232   2.490
  390SOL    HW1 1558   6.039   5.239   2.415
  390SOL    HW2 1559   5.914   5.169   2.464
  390SOL     MW 1560   5.980   5.225   2.477
  391SOL     OW 1561   3.755   5.087   2.584
  391SOL    HW1 1562   3.841   5.064   2.548
  391SOL    HW2 1563   3.715   5.002   2.603
  391SOL     MW 1564   3.761   5.073   2.582
  392SOL     OW 1565   8.848   7.882   2.334
  392SOL    HW1 1566   8.839   7.845   2.422
  392SOL    HW2 1567   8.941   7.902   2.326
  392SOL     MW 1568   8.859   7.880   2.344
  393SOL     OW 1569   6.483   6.361   5.935
  393SOL    HW1 1570   6.394   6.348   5.901
  393SOL    HW2 1571   6.474   6.428   6.002
  393SOL     MW 1572   6.471   6.368   5.939
  394SOL     OW 1573   0.901   3.855   6.095
  394SOL    HW1 1574   0.950   3.880   6.173
  394SOL    HW2 1575   0.939   3.907   6.025
  394SOL     MW 1576   0.912   3.865   6.096
  395SOL     OW 1577   0.323  10.024   2.309
  395SOL    HW1 1578   0.400  10.019   2.365
  395SOL    HW2 1579   0.352  10.072   2.231
  395SOL     MW 1580   0.337  10.030   2.306
  396SOL     OW 1581   7.459   8.986   6.798
  396SOL    HW1 1582   7.436   9.064   6.848
  396SOL    HW2 1583   7.513   8.934   6.858
  396SOL     MW 1584   7.463   8.990   6.812
  397SOL     OW 1585   7.246   1.136   7.428
  397SOL    HW1 1586   7.311   1.151   7.496
  397SOL    HW2 1587   7.268   1.050   7.391
  397SOL     MW 1588   7.257   1.127   7.432
  398SOL     OW 1589   4.880   3.933   0.586
  398SOL    HW1 1590   4.908   3.971   0.669
  398SOL    HW2 1591   4.864   3.841   0.606
  398SOL     MW 1592   4.881   3.926   0.599
  399SOL     OW 1593   6.657   2.833   2.652
  399SOL    HW1 1594   6.631   2.768   2.587
  399SOL    HW2 1595   6.743   2.805   2.682
  399SOL     MW 1596   6.664   2.821   2.648
  400SOL     OW 1597   9.277   1.736   4.108
  400SOL    HW1 1598   9.335   1.715   4.034
  400SOL    HW2 1599   9.243   1.651   4.136
  400SOL     MW 1600   9.280   1.722   4.102
  401SOL     OW 1601   8.207   8.343   8.231
  401SOL    HW1 1602   8.212   8.258   8.187
  401SOL    HW2 1603   8.114   8.352   8.254
  401SOL     MW 1604   8.196   8.333   8.229
  402SOL     OW 1605   5.141   0.680   4.455
  402SOL    HW1 1606   5.107   0.763   4.421
  402SOL    HW2 1607   5.105   0.674   4.544
  402SOL     MW 1608   5.132   0.690   4.462
  403SOL     OW 1609   9.821   4.464   7.717
  403SOL    HW1 1610   9.848   4.544   7.672
  403SOL    HW2 1611   9.883   4.455   7.789
  403SOL     MW 1612   9.832   4.473   7.721
  404SOL     OW 1613   2.651   1.435   9.767
  404SOL    HW1 1614   2.731   1.395   9.733
  404SOL    HW2 1615   2.638   1.394   9.852
  404SOL     MW 1616   2.659   1.425   9.774
  405SOL     OW 1617   8.573   1.811   0.209
  405SOL    HW1 1618   8.655   1.832   0.254
  405SOL    HW2 1619   8.592   1.825   0.117
  405SOL     MW 1620   8.586   1.815   0.203
  406SOL     OW 1621   0.981   7.915   1.804
  406SOL    HW1 1622   1.059   7.882   1.848
  406SOL    HW2 1623   0.971   8.004   1.836
  406SOL     MW 1624   0.989   7.922   1.813
  407SOL     OW 1625   0.367   7.236   4.856
  407SOL    HW1 1626   0.347   7.153   4.898
  407SOL    HW2 1627   0.461   7.232   4.837
  407SOL     MW 1628   0.377   7.225   4.859
  408SOL     OW 1629   6.063   5.689   5.104
  408SOL    HW1 1630   6.048   5.634   5.028
  408SOL    HW2 1631   5.992   5.667   5.164
  408SOL     MW 1632   6.052   5.680   5.102
  409SOL     OW 1633   1.344  10.020   0.252
  409SOL    HW1 1634   1.289  10.083   0.297
  409SOL    HW2 1635   1.359   9.951   0.317
  409SOL     MW 1636   1.339  10.019   0.266
  410SOL     OW 1637   4.594   4.692   8.633
  410SOL    HW1 1638   4.575   4.699   8.726
  410SOL    HW2 1639   4.537   4.758   8.592
  410SOL     MW 1640   4.584   4.701   8.639
  411SOL     OW 1641   2.061   7.797   6.066
  411SOL    HW1 1642   2.127   7.730   6.082
  411SOL    HW2 1643   2.003   7.794   6.142
  411SOL     MW 1644   2.062   7.788   6.078
  412SOL     OW 1645   8.005   7.846   0.110
  412SOL    HW1 1646   7.994   7.764   0.061
  412SOL    HW2 1647   8.093   7.839   0.148
  412SOL     MW 1648   8.015   7.835   0.109
  413SOL     OW 1649   8.121   5.401   7.720
  413SOL    HW1 1650   8.195   5.387   7.779
  413SOL    HW2 1651   8.106   5.316   7.679
  413SOL     MW 1652   8.129   5.389   7.723
  414SOL     OW 1653   3.553   2.323   6.469
  414SOL    HW1 1654   3.647   2.338   6.479
  414SOL    HW2 1655   3.520   2.317   6.559
  414SOL     MW 1656   3.561   2.324   6.482
  415SOL     OW 1657   9.680   0.538   2.476
  415SOL    HW1 1658   9.680   0.589   2.395
  415SOL    HW2 1659   9.632   0.458   2.453
  415SOL     MW 1660   9.674   0.534   2.462
  416SOL     OW 1661   6.943   5.540   6.638
  416SOL    HW1 1662   7.002   5.474   6.676
  416SOL    HW2 1663   6.993   5.578   6.566
  416SOL     MW 1664   6.957   5.537   6.634
  417SOL     OW 1665   6.735   1.859   0.232
  417SOL    HW1 1666   6.797   1.796   0.270
  417SOL    HW2 1667   6.743   1.937   0.287
  417SOL     MW 1668   6.744   1.861   0.244
  418SOL     OW 1669   7.349   2.216   9.267
  418SOL    HW1 1670   7.323   2.184   9.181
  418SOL    HW2 1671   7.344   2.140   9.324
  418SOL     MW 1672   7.345   2.202   9.264
  419SOL     OW 1673   6.594   9.608   5.348
  419SOL    HW1 1674   6.626   9.623   5.437
  419SOL    HW2 1675   6.611   9.691   5.302
  419SOL     MW 1676   6.600   9.621   5.353
  420SOL     OW 1677   0.116   7.264   7.341
  420SOL    HW1 1678   0.136   7.219   7.259
  420SOL    HW2 1679   0.051   7.330   7.318
  420SOL     MW 1680   0.110   7.266   7.328
  421SOL     OW 1681   2.515   9.793   7.041
  421SOL    HW1 1682   2.590   9.790   7.101
  421SOL    HW2 1683   2.553   9.780   6.955
  421SOL     MW 1684   2.529   9.791   7.038
  422SOL     OW 1685   7.554   6.429   7.888
  422SOL    HW1 1686   7.504   6.412   7.808
  422SOL    HW2 1687   7.506   6.382   7.956
  422SOL     MW 1688   7.542   6.421   7.886
  423SOL     OW 1689   1.292   7.132   4.069
  423SOL    HW1 1690   1.211   7.081   4.063
  423SOL    HW2 1691   1.349   7.080   4.125
  423SOL     MW 1692   1.289   7.119   4.075
  424SOL     OW 1693   6.343   6.767   6.724
  424SOL    HW1 1694   6.410   6.719   6.675
  424SOL    HW2 1695   6.263   6.758   6.671
  424SOL     MW 1696   6.341   6.760   6.711
  425SOL     OW 1697   1.406   9.380   6.815
  425SOL    HW1 1698   1.385   9.310   6.877
  425SOL    HW2 1699   1.432   9.454   6.871
  425SOL     MW 1700   1.407   9.381   6.830
  426SOL     OW 1701   9.275   7.926   0.782
  426SOL    HW1 1702   9.333   7.953   0.853
  426SOL    HW2 1703   9.326   7.941   0.703
  426SOL     MW 1704   9.289   7.932   0.781
  427SOL     OW 1705   7.477   4.832   3.415
  427SOL    HW1 1706   7.467   4.926   3.428
  427SOL    HW2 1707   7.551   4.824   3.354
  427SOL     MW 1708   7.485   4.843   3.409
  428SOL     OW 1709   2.322   0.455   9.216
  428SOL    HW1 1710   2.267   0.389   9.257
  428SOL    HW2 1711   2.411   0.422   9.227
  428SOL     MW 1712   2.326   0.442   9.223
  429SOL     OW 1713   7.461   5.195   1.878
  429SOL    HW1 1714   7.428   5.278   1.913
  429SOL    HW2 1715   7.524   5.165   1.944
  429SOL     MW 1716   7.465   5.202   1.891
  430SOL     OW 1717   8.819   1.463   5.571
  430SOL    HW1 1718   8.728   1.470   5.543
  430SOL    HW2 1719   8.868   1.515   5.507
  430SOL     MW 1720   8.814   1.470   5.559
  431SOL     OW 1721   0.228   1.946   6.347
  431SOL    HW1 1722   0.206   1.894   6.424
  431SOL    HW2 1723   0.286   1.890   6.295
  431SOL     MW 1724   0.233   1.933   6.350
  432SOL     OW 1725   1.800   0.829   0.269
  432SOL    HW1 1726   1.763   0.765   0.208
  432SOL    HW2 1727   1.895   0.821   0.258
  432SOL     MW 1728   1.807   0.820   0.260
  433SOL     OW 1729   8.141   8.277   5.241
  433SOL    HW1 1730   8.209   8.252   5.178
  433SOL    HW2 1731   8.170   8.240   5.324
  433SOL     MW 1732   8.153   8.269   5.243
  434SOL     OW 1733  10.116   5.957   6.979
  434SOL    HW1 1734  10.108   6.052   6.990
  434SOL    HW2 1735  10.210   5.942   6.972
  434SOL     MW 1736  10.127   5.968   6.979
  435SOL     OW 1737   0.464   1.528   6.096
  435SOL    HW1 1738   0.518   1.553   6.021
  435SOL    HW2 1739   0.495   1.441   6.121
  435SOL     MW 1740   0.475   1.520   6.090
  436SOL     OW 1741   3.667   2.295   7.291
  436SOL    HW1 1742   3.674   2.348   7.211
  436SOL    HW2 1743   3.685   2.206   7.262
  436SOL     MW 1744   3.670   2.290   7.277
  437SOL     OW 1745   9.404   5.378   9.776
  437SOL    HW1 1746   9.449   5.414   9.852
  437SOL    HW2 1747   9.395   5.285   9.794
  437SOL     MW 1748   9.409   5.371   9.788
  438SOL     OW 1749   9.928   2.627   5.475
  438SOL    HW1 1750  10.009   2.598   5.433
  438SOL    HW2 1751   9.950   2.633   5.568
  438SOL     MW 1752   9.941   2.624   5.482
  439SOL     OW 1753   9.649   6.775   8.469
  439SOL    HW1 1754   9.578   6.715   8.445
  439SOL    HW2 1755   9.722   6.717   8.491
  439SOL     MW 1756   9.649   6.760   8.468
  440SOL     OW 1757   1.503   1.048   4.090
  440SOL    HW1 1758   1.444   1.076   4.160
  440SOL    HW2 1759   1.497   1.117   4.024
  440SOL     MW 1760   1.495   1.060   4.091
  441SOL     OW 1761   8.519   5.701   4.883
  441SOL    HW1 1762   8.554   5.709   4.794
  441SOL    HW2 1763   8.589   5.733   4.939
  441SOL     MW 1764   8.532   5.706   4.879
  442SOL     OW 1765   0.435   6.146   0.476
  442SOL    HW1 1766   0.385   6.153   0.557
  442SOL    HW2 1767   0.454   6.237   0.451
  442SOL     MW 1768   0.431   6.158   0.483
  443SOL     OW 1769   0.479   7.308   7.624
  443SOL    HW1 1770   0.538   7.272   7.558
  443SOL    HW2 1771   0.494   7.254   7.701
  443SOL     MW 1772   0.488   7.297   7.626
  444SOL     OW 1773   1.320   6.871   6.468
  444SOL    HW1 1774   1.236   6.891   6.427
  444SOL    HW2 1775   1.297   6.851   6.559
  444SOL     MW 1776   1.306   6.871   6.475
  445SOL     OW 1777   1.071   7.823   2.357
  445SOL    HW1 1778   1.127   7.897   2.334
  445SOL    HW2 1779   0.987   7.862   2.379
  445SOL     MW 1780   1.067   7.838   2.357
  446SOL     OW 1781   5.996   3.492   2.825
  446SOL    HW1 1782   6.079   3.532   2.798
  446SOL    HW2 1783   5.933   3.519   2.759
  446SOL     MW 1784   5.999   3.501   2.813
  447SOL     OW 1785   1.363   1.802   7.705
  447SOL    HW1 1786   1.457   1.807   7.720
  447SOL    HW2 1787   1.350   1.843   7.620
  447SOL     MW 1788   1.373   1.808   7.696
  448SOL     OW 1789   7.415   0.465   7.494
  448SOL    HW1 1790   7.378   0.395   7.441
  448SOL    HW2 1791   7.445   0.422   7.574
  448SOL     MW 1792   7.414   0.451   7.498
  449SOL     OW 1793   0.547   3.565   3.544
  449SOL    HW1 1794   0.601   3.556   3.622
  449SOL    HW2 1795   0.457   3.561   3.576
  449SOL     MW 1796   0.542   3.563   3.558
  450SOL     OW 1797   7.463   1.837   4.318
  450SOL    HW1 1798   7.399   1.772   4.347
  450SOL    HW2 1799   7.539   1.786   4.291
  450SOL     MW 1800   7.465   1.822   4.319
  451SOL     OW 1801   1.682   4.039   9.823
  451SOL    HW1 1802   1.656   3.948   9.804
  451SOL    HW2 1803   1.751   4.031   9.889
  451SOL     MW 1804   1.688   4.026   9.829
  452SOL     OW 1805   9.775   1.695   5.366
  452SOL    HW1 1806   9.834   1.620   5.379
  452SOL    HW2 1807   9.819   1.768   5.410
  452SOL     MW 1808   9.788   1.695   5.373
  453SOL     OW 1809   9.731   8.841   6.258
  453SOL    HW1 1810   9.710   8.891   6.337
  453SOL    HW2 1811   9.647   8.807   6.228
  453SOL     MW 1812   9.718   8.843   6.265
  454SOL     OW 1813   1.318   5.357   3.379
  454SOL    HW1 1814   1.273   5.333   3.298
  454SOL    HW2 1815   1.286   5.445   3.398
  454SOL     MW 1816   1.308   5.366   3.371
  455SOL     OW 1817   9.744   7.971   5.585
  455SOL    HW1 1818   9.832   7.948   5.613
  455SOL    HW2 1819   9.700   7.887   5.570
  455SOL     MW 1820   9.749   7.957   5.586
  456SOL     OW 1821   1.031   6.633   1.142
  456SOL    HW1 1822   1.061   6.718   1.175
  456SOL    HW2 1823   1.091   6.570   1.183
  456SOL     MW 1824   1.043   6.635   1.152
  457SOL     OW 1825   4.086   3.654   9.796
  457SOL    HW1 1826   4.027   3.704   9.852
  457SOL    HW2 1827   4.128   3.592   9.855
  457SOL     MW 1828   4.084   3.653   9.811
  458SOL     OW 1829   9.794   1.334   4.825
  458SOL    HW1 1830   9.795   1.430   4.822
  458SOL    HW2 1831   9.778   1.308   4.734
  458SOL     MW 1832   9.792   1.343   4.813
  459SOL     OW 1833   4.466   4.933   1.053
  459SOL    HW1 1834   4.440   4.970   0.968
  459SOL    HW2 1835   4.552   4.971   1.070
  459SOL     MW 1836   4.474   4.943   1.044
  460SOL     OW 1837   8.419   9.660   3.089
  460SOL    HW1 1838   8.388   9.588   3.035
  460SOL    HW2 1839   8.487   9.702   3.037
  460SOL     MW 1840   8.423   9.656   3.075
  461SOL     OW 1841   4.139   7.014   6.373
  461SOL    HW1 1842   4.148   7.056   6.458
  461SOL    HW2 1843   4.229   6.990   6.348
  461SOL     MW 1844   4.152   7.016   6.380
  462SOL     OW 1845   2.104   5.619   8.868
  462SOL    HW1 1846   2.199   5.626   8.864
  462SOL    HW2 1847   2.083   5.630   8.960
  462SOL     MW 1848   2.113   5.622   8.879
  463SOL     OW 1849   0.248   2.095   4.900
  463SOL    HW1 1850   0.276   2.004   4.907
  463SOL    HW2 1851   0.319   2.146   4.939
  463SOL     MW 1852   0.261   2.090   4.906
  464SOL     OW 1853   4.124   4.316   7.513
  464SOL    HW1 1854   4.168   4.240   7.550
  464SOL    HW2 1855   4.157   4.322   7.423
  464SOL     MW 1856   4.134   4.307   7.506
  465SOL     OW 1857   9.104   1.944   0.271
  465SOL    HW1 1858   9.129   1.871   0.328
  465SOL    HW2 1859   9.010   1.931   0.256
  465SOL     MW 1860   9.095   1.933   0.277
  466SOL     OW 1861   6.994   0.671   8.588
  466SOL    HW1 1862   6.961   0.672   8.498
  466SOL    HW2 1863   7.037   0.586   8.597
  466SOL     MW 1864   6.995   0.660   8.578
  467SOL     OW 1865   7.040   9.897   7.345
  467SOL    HW1 1866   7.040   9.990   7.319
  467SOL    HW2 1867   6.950   9.869   7.329
  467SOL     MW 1868   7.028   9.906   7.340
  468SOL     OW 1869   1.021   6.116   2.049
  468SOL    HW1 1870   0.974   6.138   2.130
  468SOL    HW2 1871   1.095   6.177   2.048
  468SOL     MW 1872   1.025   6.127   2.060
  469SOL     OW 1873   9.099   9.571   8.634
  469SOL    HW1 1874   9.076   9.645   8.577
  469SOL    HW2 1875   9.022   9.557   8.688
  469SOL     MW 1876   9.086   9.579   8.633
  470SOL     OW 1877   2.325   3.965   3.850
  470SOL    HW1 1878   2.366   3.959   3.936
  470SOL    HW2 1879   2.348   4.052   3.818
  470SOL     MW 1880   2.333   3.975   3.857
  471SOL     OW 1881   4.871   2.513   5.365
  471SOL    HW1 1882   4.965   2.523   5.353
  471SOL    HW2 1883   4.854   2.421   5.345
  471SOL     MW 1884   4.881   2.502   5.361
  472SOL     OW 1885   9.535   1.904   6.626
  472SOL    HW1 1886   9.441   1.892   6.636
  472SOL    HW2 1887   9.544   1.994   6.596
  472SOL     MW 1888   9.524   1.914   6.624
  473SOL     OW 1889   0.285   0.526   6.829
  473SOL    HW1 1890   0.337   0.482   6.761
  473SOL    HW2 1891   0.194   0.517   6.800
  473SOL     MW 1892   0.280   0.519   6.817
  474SOL     OW 1893   1.974   1.306   5.920
  474SOL    HW1 1894   2.003   1.397   5.908
  474SOL    HW2 1895   2.054   1.254   5.913
  474SOL     MW 1896   1.988   1.311   5.917
  475SOL     OW 1897   2.062   4.870   1.542
  475SOL    HW1 1898   1.999   4.934   1.512
  475SOL    HW2 1899   2.146   4.902   1.510
  475SOL     MW 1900   2.065   4.882   1.534
  476SOL     OW 1901   3.015   3.448   1.641
  476SOL    HW1 1902   3.066   3.379   1.684
  476SOL    HW2 1903   3.055   3.529   1.670
  476SOL     MW 1904   3.027   3.449   1.650
  477SOL     OW 1905   3.215   4.822   2.396
  477SOL    HW1 1906   3.185   4.798   2.308
  477SOL    HW2 1907   3.203   4.917   2.401
  477SOL     MW 1908   3.210   4.831   2.385
  478SOL     OW 1909   0.762   9.151   0.626
  478SOL    HW1 1910   0.737   9.082   0.565
  478SOL    HW2 1911   0.857   9.152   0.625
  478SOL     MW 1912   0.771   9.142   0.618
  479SOL     OW 1913   8.308   9.783   1.958
  479SOL    HW1 1914   8.335   9.698   1.924
  479SOL    HW2 1915   8.355   9.792   2.041
  479SOL     MW 1916   8.318   9.774   1.965
  480SOL     OW 1917   9.455   0.023   6.404
  480SOL    HW1 1918   9.443  -0.057   6.353
  480SOL    HW2 1919   9.388   0.083   6.372
  480SOL     MW 1920   9.445   0.020   6.394
  481SOL     OW 1921   8.563   4.395   4.736
  481SOL    HW1 1922   8.605   4.413   4.820
  481SOL    HW2 1923   8.616   4.326   4.696
  481SOL     MW 1924   8.575   4.389   4.741
  482SOL     OW 1925   5.204   9.608   6.311
  482SOL    HW1 1926   5.226   9.605   6.218
  482SOL    HW2 1927   5.164   9.524   6.329
  482SOL     MW 1928   5.202   9.597   6.301
  483SOL     OW 1929   3.431   5.903   8.211
  483SOL    HW1 1930   3.432   5.981   8.156
  483SOL    HW2 1931   3.376   5.927   8.286
  483SOL     MW 1932   3.424   5.916   8.214
  484SOL     OW 1933   9.259   6.196   1.945
  484SOL    HW1 1934   9.333   6.256   1.951
  484SOL    HW2 1935   9.297   6.116   1.908
  484SOL     MW 1936   9.273   6.193   1.941
  485SOL     OW 1937   6.996   5.027   2.054
  485SOL    HW1 1938   6.939   5.093   2.092
  485SOL    HW2 1939   7.068   5.076   2.016
  485SOL     MW 1940   6.998   5.042   2.054
  486SOL     OW 1941   2.015   9.978   5.389
  486SOL    HW1 1942   2.018  10.006   5.297
  486SOL    HW2 1943   1.994   9.885   5.386
  486SOL     MW 1944   2.013   9.970   5.377
  487SOL     OW 1945   5.870   3.713   7.676
  487SOL    HW1 1946   5.829   3.751   7.754
  487SOL    HW2 1947   5.826   3.629   7.664
  487SOL     MW 1948   5.859   3.707   7.685
  488SOL     OW 1949   4.636   2.984   4.459
  488SOL    HW1 1950   4.679   2.968   4.543
  488SOL    HW2 1951   4.654   2.906   4.408
  488SOL     MW 1952   4.644   2.972   4.463
  489SOL     OW 1953   0.722   0.917   8.210
  489SOL    HW1 1954   0.762   0.841   8.166
  489SOL    HW2 1955   0.699   0.976   8.139
  489SOL     MW 1956   0.724   0.915   8.196
  490SOL     OW 1957   0.368   4.203   5.230
  490SOL    HW1 1958   0.327   4.121   5.257
  490SOL    HW2 1959   0.304   4.270   5.254
  490SOL     MW 1960   0.354   4.201   5.237
  491SOL     OW 1961   7.351   3.721   3.680
  491SOL    HW1 1962   7.317   3.635   3.656
  491SOL    HW2 1963   7.422   3.703   3.742
  491SOL     MW 1964   7.356   3.707   3.685
  492SOL     OW 1965   1.368   7.765   2.094
  492SOL    HW1 1966   1.305   7.763   2.022
  492SOL    HW2 1967   1.454   7.757   2.051
  492SOL     MW 1968   1.371   7.764   2.079
  493SOL     OW 1969   4.872   4.570   3.310
  493SOL    HW1 1970   4.826   4.626   3.372
  493SOL    HW2 1971   4.906   4.498   3.363
  493SOL     MW 1972   4.870   4.568   3.325
  494SOL     OW 1973   0.439   7.696   0.850
  494SOL    HW1 1974   0.397   7.775   0.884
  494SOL    HW2 1975   0.508   7.675   0.913
  494SOL     MW 1976   0.443   7.703   0.862
  495SOL     OW 1977   7.632   7.581   3.482
  495SOL    HW1 1978   7.695   7.625   3.425
  495SOL    HW2 1979   7.658   7.489   3.482
  495SOL     MW 1980   7.643   7.575   3.475
  496SOL     OW 1981   5.912   9.362   2.465
  496SOL    HW1 1982   5.842   9.426   2.476
  496SOL    HW2 1983   5.973   9.382   2.537
  496SOL     MW 1984   5.911   9.373   2.476
  497SOL     OW 1985   5.635   2.670   8.864
  497SOL    HW1 1986   5.724   2.672   8.898
  497SOL    HW2 1987   5.626   2.582   8.827
  497SOL     MW 1988   5.645   2.659   8.864
  498SOL     OW 1989   8.843   0.969   8.644
  498SOL    HW1 1990   8.780   0.961   8.572
  498SOL    HW2 1991   8.821   0.895   8.702
  498SOL     MW 1992   8.832   0.958   8.642
  499SOL     OW 1993   7.366   5.168   4.656
  499SOL    HW1 1994   7.461   5.166   4.646
  499SOL    HW2 1995   7.333   5.203   4.574
  499SOL     MW 1996   7.374   5.172   4.645
  500SOL     OW 1997   3.347   0.229   4.963
  500SOL    HW1 1998   3.252   0.231   4.970
  500SOL    HW2 1999   3.369   0.137   4.946
  500SOL     MW 2000   3.338   0.217   4.962
  501SOL     OW 2001   8.509   6.402   5.425
  501SOL    HW1 2002   8.584   6.432   5.476
  501SOL    HW2 2003   8.455   6.480   5.412
  501SOL     MW 2004   8.512   6.416   5.430
  502SOL     OW 2005   0.297   0.003   4.906
  502SOL    HW1 2006   0.277   0.096   4.919
  502SOL    HW2 2007   0.327  -0.028   4.991
  502SOL     MW 2008   0.298   0.011   4.919
  503SOL     OW 2009   9.275   3.866   0.602
  503SOL    HW1 2010   9.299   3.797   0.541
  503SOL    HW2 2011   9.262   3.943   0.548
  503SOL     MW 2012   9.276   3.867   0.587
  504SOL     OW 2013   0.645   7.819   0.719
  504SOL    HW1 2014   0.564   7.771   0.738
  504SOL    HW2 2015   0.699   7.757   0.671
  504SOL     MW 2016   0.642   7.805   0.715
  505SOL     OW 2017   5.014   9.976   1.427
  505SOL    HW1 2018   5.105   9.945   1.428
  505SOL    HW2 2019   4.972   9.922   1.360
  505SOL     MW 2020   5.020   9.965   1.418
  506SOL     OW 2021   9.375   6.199   8.844
  506SOL    HW1 2022   9.382   6.295   8.846
  506SOL    HW2 2023   9.459   6.170   8.810
  506SOL     MW 2024   9.386   6.208   8.840
  507SOL     OW 2025   8.166   1.582   5.264
  507SOL    HW1 2026   8.214   1.654   5.223
  507SOL    HW2 2027   8.201   1.503   5.222
  507SOL     MW 2028   8.177   1.581   5.253
  508SOL     OW 2029   1.328   6.756   0.128
  508SOL    HW1 2030   1.326   6.842   0.171
  508SOL    HW2 2031   1.420   6.729   0.132
  508SOL     MW 2032   1.340   6.764   0.134
  509SOL     OW 2033   8.050   2.133   0.139
  509SOL    HW1 2034   8.128   2.089   0.173
  509SOL    HW2 2035   8.058   2.223   0.171
  509SOL     MW 2036   8.061   2.139   0.147
  510SOL     OW 2037   0.576   0.846   5.393
  510SOL    HW1 2038   0.603   0.776   5.453
  510SOL    HW2 2039   0.567   0.802   5.308
  510SOL     MW 2040   0.578   0.831   5.390
  511SOL     OW 2041   8.426   6.820   0.589
  511SOL    HW1 2042   8.463   6.826   0.677
  511SOL    HW2 2043   8.382   6.735   0.587
  511SOL     MW 2044   8.425   6.810   0.600
  512SOL     OW 2045   6.120   1.788   7.734
  512SOL    HW1 2046   6.068   1.866   7.756
  512SOL    HW2 2047   6.150   1.755   7.818
  512SOL     MW 2048   6.117   1.794   7.747
  513SOL     OW 2049   6.947   8.461   2.287
  513SOL    HW1 2050   6.975   8.396   2.223
  513SOL    HW2 2051   6.852   8.466   2.276
  513SOL     MW 2052   6.938   8.453   2.278
  514SOL     OW 2053   8.135   3.176   0.637
  514SOL    HW1 2054   8.041   3.188   0.622
  514SOL    HW2 2055   8.149   3.206   0.727
  514SOL     MW 2056   8.125   3.181   0.646
  515SOL     OW 2057   5.893   4.447   2.779
  515SOL    HW1 2058   5.856   4.478   2.861
  515SOL    HW2 2059   5.877   4.353   2.779
  515SOL     MW 2060   5.886   4.439   2.789
  516SOL     OW 2061   3.793   2.337   1.036
  516SOL    HW1 2062   3.719   2.387   1.069
  516SOL    HW2 2063   3.760   2.293   0.958
  516SOL     MW 2064   3.779   2.338   1.031
  517SOL     OW 2065   3.888   0.111   2.654
  517SOL    HW1 2066   3.894   0.198   2.614
  517SOL    HW2 2067   3.811   0.072   2.614
  517SOL     MW 2068   3.879   0.118   2.644
  518SOL     OW 2069   0.572   8.059   2.447
  518SOL    HW1 2070   0.637   8.090   2.511
  518SOL    HW2 2071   0.519   8.136   2.428
  518SOL     MW 2072   0.574   8.073   2.453
  519SOL     OW 2073   0.250   8.535   4.987
  519SOL    HW1 2074   0.225   8.484   5.064
  519SOL    HW2 2075   0.247   8.626   5.016
  519SOL     MW 2076   0.247   8.540   5.000
  520SOL     OW 2077   1.305   2.657   5.653
  520SOL    HW1 2078   1.299   2.600   5.730
  520SOL    HW2 2079   1.389   2.636   5.614
  520SOL     MW 2080   1.315   2.647   5.658
  521SOL     OW 2081   5.135   1.005   1.112
  521SOL    HW1 2082   5.155   0.915   1.136
  521SOL    HW2 2083   5.149   1.055   1.192
  521SOL     MW 2084   5.139   1.000   1.125
  522SOL     OW 2085   8.210   7.907   0.476
  522SOL    HW1 2086   8.225   7.882   0.385
  522SOL    HW2 2087   8.287   7.877   0.523
  522SOL     MW 2088   8.222   7.900   0.471
  523SOL     OW 2089   9.135   5.574   3.103
  523SOL    HW1 2090   9.133   5.481   3.078
  523SOL    HW2 2091   9.212   5.609   3.059
  523SOL     MW 2092   9.144   5.566   3.094
  524SOL     OW 2093   8.031   6.355   6.676
  524SOL    HW1 2094   8.103   6.395   6.627
  524SOL    HW2 2095   8.054   6.369   6.768
  524SOL     MW 2096   8.043   6.362   6.682
  525SOL     OW 2097   3.872   0.287   0.576
  525SOL    HW1 2098   3.912   0.336   0.648
  525SOL    HW2 2099   3.781   0.315   0.576
  525SOL     MW 2100   3.866   0.297   0.586
  526SOL     OW 2101   3.078   1.308   8.037
  526SOL    HW1 2102   3.035   1.281   8.118
  526SOL    HW2 2103   3.101   1.226   7.994
  526SOL     MW 2104   3.076   1.294   8.042
  527SOL     OW 2105   3.368   5.487   3.427
  527SOL    HW1 2106   3.320   5.492   3.344
  527SOL    HW2 2107   3.327   5.553   3.483
  527SOL     MW 2108   3.357   5.496   3.423
  528SOL     OW 2109   5.473   5.350   5.392
  528SOL    HW1 2110   5.449   5.443   5.397
  528SOL    HW2 2111   5.425   5.308   5.462
  528SOL     MW 2112   5.464   5.357   5.401
  529SOL     OW 2113   5.432   1.354   5.174
  529SOL    HW1 2114   5.519   1.354   5.214
  529SOL    HW2 2115   5.417   1.262   5.150
  529SOL     MW 2116   5.441   1.342   5.176
  530SOL     OW 2117   1.886   5.618   9.460
  530SOL    HW1 2118   1.910   5.541   9.408
  530SOL    HW2 2119   1.822   5.585   9.523
  530SOL     MW 2120   1.881   5.604   9.461
  531SOL     OW 2121   8.072   1.380   7.722
  531SOL    HW1 2122   8.102   1.304   7.673
  531SOL    HW2 2123   8.130   1.451   7.694
  531SOL     MW 2124   8.083   1.380   7.712
  532SOL     OW 2125   2.462   5.186   1.459
  532SOL    HW1 2126   2.448   5.263   1.513
  532SOL    HW2 2127   2.546   5.201   1.416
  532SOL     MW 2128   2.471   5.197   1.461
  533SOL     OW 2129   4.826   2.008   0.680
  533SOL    HW1 2130   4.916   1.975   0.685
  533SOL    HW2 2131   4.796   1.983   0.593
  533SOL     MW 2132   4.834   2.000   0.670
  534SOL     OW 2133   5.667   1.358   5.312
  534SOL    HW1 2134   5.626   1.376   5.397
  534SOL    HW2 2135   5.732   1.427   5.301
  534SOL     MW 2136   5.670   1.369   5.321
  535SOL     OW 2137   5.924   8.735   7.763
  535SOL    HW1 2138   5.894   8.689   7.842
  535SOL    HW2 2139   5.890   8.682   7.691
  535SOL     MW 2140   5.916   8.722   7.764
  536SOL     OW 2141   8.069   9.752   1.036
  536SOL    HW1 2142   8.085   9.795   0.952
  536SOL    HW2 2143   8.155   9.747   1.077
  536SOL     MW 2144   8.082   9.757   1.030
  537SOL     OW 2145   9.580   4.277   1.766
  537SOL    HW1 2146   9.645   4.219   1.726
  537SOL    HW2 2147   9.628   4.324   1.834
  537SOL     MW 2148   9.594   4.276   1.770
  538SOL     OW 2149   3.807   2.586   5.031
  538SOL    HW1 2150   3.902   2.597   5.034
  538SOL    HW2 2151   3.794   2.503   4.986
  538SOL     MW 2152   3.818   2.577   5.025
  539SOL     OW 2153   1.928   8.093   0.644
  539SOL    HW1 2154   1.949   8.000   0.639
  539SOL    HW2 2155   2.013   8.137   0.645
  539SOL     MW 2156   1.942   8.087   0.644
  540SOL     OW 2157   2.156   6.324   4.504
  540SOL    HW1 2158   2.217   6.303   4.575
  540SOL    HW2 2159   2.196   6.283   4.427
  540SOL     MW 2160   2.169   6.316   4.503
  541SOL     OW 2161   9.285   3.732   3.648
  541SOL    HW1 2162   9.345   3.677   3.698
  541SOL    HW2 2163   9.276   3.812   3.699
  541SOL     MW 2164   9.291   3.735   3.661
  542SOL     OW 2165   6.566   3.733   6.687
  542SOL    HW1 2166   6.596   3.644   6.668
  542SOL    HW2 2167   6.532   3.765   6.604
  542SOL     MW 2168   6.566   3.726   6.674
  543SOL     OW 2169   5.134   6.514   5.670
  543SOL    HW1 2170   5.106   6.528   5.760
  543SOL    HW2 2171   5.103   6.592   5.623
  543SOL     MW 2172   5.127   6.526   5.675
  544SOL     OW 2173   0.868   8.703   8.706
  544SOL    HW1 2174   0.915   8.779   8.671
  544SOL    HW2 2175   0.930   8.630   8.696
  544SOL     MW 2176   0.882   8.703   8.700
  545SOL     OW 2177   0.090   4.139   5.412
  545SOL    HW1 2178   0.106   4.225   5.373
  545SOL    HW2 2179   0.097   4.153   5.506
  545SOL     MW 2180   0.093   4.152   5.419
  546SOL     OW 2181   3.249   9.084   4.227
  546SOL    HW1 2182   3.232   8.993   4.251
  546SOL    HW2 2183   3.163   9.119   4.203
  546SOL     MW 2184   3.236   9.077   4.227
  547SOL     OW 2185   0.480   3.312   6.113
  547SOL    HW1 2186   0.466   3.394   6.066
  547SOL    HW2 2187   0.533   3.259   6.053
  547SOL     MW 2188   0.485   3.316   6.099
  548SOL     OW 2189   7.213   6.693   9.848
  548SOL    HW1 2190   7.294   6.743   9.833
  548SOL    HW2 2191   7.240   6.602   9.842
  548SOL     MW 2192   7.227   6.688   9.845
  549SOL     OW 2193   7.133   1.839   2.758
  549SOL    HW1 2194   7.092   1.815   2.841
  549SOL    HW2 2195   7.088   1.785   2.693
  549SOL     MW 2196   7.122   1.829   2.760
  550SOL     OW 2197   4.219   5.637   0.660
  550SOL    HW1 2198   4.188   5.687   0.735
  550SOL    HW2 2199   4.168   5.671   0.586
  550SOL     MW 2200   4.209   5.647   0.660
  551SOL     OW 2201   4.402   2.735   7.486
  551SOL    HW1 2202   4.489   2.765   7.512
  551SOL    HW2 2203   4.343   2.778   7.548
  551SOL     MW 2204   4.406   2.744   7.498
  552SOL     OW 2205   2.026   6.997   3.026
  552SOL    HW1 2206   2.094   7.001   2.960
  552SOL    HW2 2207   2.066   6.950   3.100
  552SOL     MW 2208   2.040   6.991   3.027
  553SOL     OW 2209   1.916   2.949   8.614
  553SOL    HW1 2210   1.973   3.017   8.648
  553SOL    HW2 2211   1.856   2.930   8.686
  553SOL     MW 2212   1.915   2.956   8.628
  554SOL     OW 2213   5.847   2.990   1.255
  554SOL    HW1 2214   5.777   3.034   1.304
  554SOL    HW2 2215   5.871   2.915   1.310
  554SOL     MW 2216   5.841   2.986   1.268
  555SOL     OW 2217   0.668   0.824   1.829
  555SOL    HW1 2218   0.672   0.730   1.813
  555SOL    HW2 2219   0.695   0.864   1.745
  555SOL     MW 2220   0.672   0.817   1.816
  556SOL     OW 2221   2.345   8.062   9.164
  556SOL    HW1 2222   2.375   7.973   9.181
  556SOL    HW2 2223   2.250   8.052   9.149
  556SOL     MW 2224   2.336   8.049   9.164
  557SOL     OW 2225   0.049   4.146   8.282
  557SOL    HW1 2226  -0.018   4.100   8.333
  557SOL    HW2 2227   0.081   4.080   8.220
  557SOL     MW 2228   0.044   4.132   8.281
  558SOL     OW 2229   4.521   9.218   8.224
  558SOL    HW1 2230   4.457   9.171   8.278
  558SOL    HW2 2231   4.528   9.304   8.266
  558SOL     MW 2232   4.514   9.223   8.237
  559SOL     OW 2233   8.988   4.596   3.923
  559SOL    HW1 2234   8.980   4.509   3.884
  559SOL    HW2 2235   9.076   4.626   3.899
  559SOL     MW 2236   8.998   4.589   3.915
  560SOL     OW 2237   0.947   1.550   3.207
  560SOL    HW1 2238   0.855   1.573   3.196
  560SOL    HW2 2239   0.992   1.592   3.134
  560SOL     MW 2240   0.941   1.558   3.196
  561SOL     OW 2241   3.596   6.764   1.876
  561SOL    HW1 2242   3.692   6.764   1.874
  561SOL    HW2 2243   3.574   6.738   1.965
  561SOL     MW 2244   3.606   6.761   1.887
  562SOL     OW 2245   0.033   4.501   5.090
  562SOL    HW1 2246  -0.054   4.537   5.109
  562SOL    HW2 2247   0.070   4.559   5.024
  562SOL     MW 2248   0.026   4.513   5.084
  563SOL     OW 2249   6.105   0.579   5.196
  563SOL    HW1 2250   6.200   0.589   5.204
  563SOL    HW2 2251   6.071   0.669   5.197
  563SOL     MW 2252   6.113   0.592   5.197
  564SOL     OW 2253   0.742   3.636   5.331
  564SOL    HW1 2254   0.793   3.710   5.298
  564SOL    HW2 2255   0.702   3.598   5.253
  564SOL     MW 2256   0.743   3.641   5.316
  565SOL     OW 2257   3.871   5.293   2.250
  565SOL    HW1 2258   3.949   5.254   2.211
  565SOL    HW2 2259   3.897   5.383   2.271
  565SOL     MW 2260   3.884   5.300   2.248
  566SOL     OW 2261   7.861   3.722   9.287
  566SOL    HW1 2262   7.807   3.779   9.340
  566SOL    HW2 2263   7.949   3.729   9.325
  566SOL     MW 2264   7.866   3.730   9.298
  567SOL     OW 2265   5.718   5.022   2.123
  567SOL    HW1 2266   5.643   5.079   2.105
  567SOL    HW2 2267   5.791   5.065   2.079
  567SOL     MW 2268   5.718   5.035   2.115
  568SOL     OW 2269   8.304   7.281   5.806
  568SOL    HW1 2270   8.296   7.220   5.879
  568SOL    HW2 2271   8.313   7.225   5.728
  568SOL     MW 2272   8.304   7.266   5.805
  569SOL     OW 2273   5.076   2.261   3.911
  569SOL    HW1 2274   5.007   2.221   3.859
  569SOL    HW2 2275   5.090   2.347   3.871
  569SOL     MW 2276   5.069   2.267   3.899
  570SOL     OW 2277   9.207   3.515   6.651
  570SOL    HW1 2278   9.143   3.500   6.582
  570SOL    HW2 2279   9.172   3.587   6.702
  570SOL     MW 2280   9.195   3.522   6.648
  571SOL     OW 2281   9.762   0.492   3.672
  571SOL    HW1 2282   9.818   0.442   3.612
  571SOL    HW2 2283   9.694   0.430   3.699
  571SOL     MW 2284   9.760   0.478   3.667
  572SOL     OW 2285   1.342   1.469   3.831
  572SOL    HW1 2286   1.334   1.539   3.896
  572SOL    HW2 2287   1.292   1.500   3.756
  572SOL     MW 2288   1.335   1.482   3.829
  573SOL     OW 2289   8.277   7.151   6.042
  573SOL    HW1 2290   8.323   7.227   6.077
  573SOL    HW2 2291   8.187   7.161   6.072
  573SOL     MW 2292   8.271   7.162   6.050
  574SOL     OW 2293   2.340   0.667   4.882
  574SOL    HW1 2294   2.260   0.701   4.922
  574SOL    HW2 2295   2.342   0.708   4.795
  574SOL     MW 2296   2.330   0.677   4.876
  575SOL     OW 2297   2.204   0.400   9.595
  575SOL    HW1 2298   2.259   0.385   9.672
  575SOL    HW2 2299   2.244   0.475   9.552
  575SOL     MW 2300   2.216   0.408   9.599
  576SOL     OW 2301   7.279   3.411   5.162
  576SOL    HW1 2302   7.258   3.447   5.075
  576SOL    HW2 2303   7.256   3.319   5.156
  576SOL     MW 2304   7.273   3.404   5.150
  577SOL     OW 2305   1.938   8.993   1.795
  577SOL    HW1 2306   1.924   9.022   1.885
  577SOL    HW2 2307   1.881   9.049   1.743
  577SOL     MW 2308   1.929   9.004   1.800
  578SOL     OW 2309   2.668   6.430   5.500
  578SOL    HW1 2310   2.737   6.363   5.506
  578SOL    HW2 2311   2.690   6.480   5.421
  578SOL     MW 2312   2.680   6.428   5.491
  579SOL     OW 2313   9.187   7.371   6.626
  579SOL    HW1 2314   9.197   7.449   6.680
  579SOL    HW2 2315   9.138   7.400   6.549
  579SOL     MW 2316   9.182   7.385   6.623
  580SOL     OW 2317   1.365   0.989   2.415
  580SOL    HW1 2318   1.301   0.969   2.483
  580SOL    HW2 2319   1.336   1.072   2.378
  580SOL     MW 2320   1.354   0.997   2.419
  581SOL     OW 2321   2.983   6.616   6.820
  581SOL    HW1 2322   3.067   6.662   6.809
  581SOL    HW2 2323   2.919   6.686   6.831
  581SOL     MW 2324   2.986   6.631   6.820
  582SOL     OW 2325   3.224   1.527   2.612
  582SOL    HW1 2326   3.255   1.567   2.693
  582SOL    HW2 2327   3.170   1.595   2.571
  582SOL     MW 2328   3.221   1.541   2.617
  583SOL     OW 2329   7.056   6.688   5.997
  583SOL    HW1 2330   7.031   6.774   5.963
  583SOL    HW2 2331   6.978   6.654   6.039
  583SOL     MW 2332   7.043   6.695   5.998
  584SOL     OW 2333   6.154   7.841   5.986
  584SOL    HW1 2334   6.215   7.909   5.958
  584SOL    HW2 2335   6.110   7.814   5.905
  584SOL     MW 2336   6.156   7.846   5.972
  585SOL     OW 2337   0.059   4.747   0.751
  585SOL    HW1 2338   0.049   4.655   0.727
  585SOL    HW2 2339   0.154   4.761   0.751
  585SOL     MW 2340   0.070   4.737   0.748
  586SOL     OW 2341   8.385   2.058   8.888
  586SOL    HW1 2342   8.373   2.116   8.813
  586SOL    HW2 2343   8.410   2.117   8.959
  586SOL     MW 2344   8.386   2.073   8.888
  587SOL     OW 2345   4.943   9.236   4.670
  587SOL    HW1 2346   5.014   9.299   4.677
  587SOL    HW2 2347   4.863   9.288   4.683
  587SOL     MW 2348   4.942   9.251   4.673
  588SOL     OW 2349   0.266   8.798   5.054
  588SOL    HW1 2350   0.269   8.869   5.118
  588SOL    HW2 2351   0.325   8.827   4.984
  588SOL     MW 2352   0.274   8.810   5.053
  589SOL     OW 2353   1.685   9.160   6.012
  589SOL    HW1 2354   1.642   9.181   6.095
  589SOL    HW2 2355   1.728   9.241   5.986
  589SOL     MW 2356   1.685   9.173   6.019
  590SOL     OW 2357   0.353   2.026   0.862
  590SOL    HW1 2358   0.385   2.013   0.951
  590SOL    HW2 2359   0.422   2.078   0.820
  590SOL     MW 2360   0.366   2.031   0.868
  591SOL     OW 2361   8.373   6.352   2.608
  591SOL    HW1 2362   8.418   6.302   2.677
  591SOL    HW2 2363   8.338   6.286   2.549
  591SOL     MW 2364   8.374   6.337   2.610
  592SOL     OW 2365   7.573   6.301   8.323
  592SOL    HW1 2366   7.538   6.301   8.412
  592SOL    HW2 2367   7.666   6.282   8.334
  592SOL     MW 2368   7.581   6.299   8.336
  593SOL     OW 2369   0.359   5.987   6.733
  593SOL    HW1 2370   0.291   6.029   6.680
  593SOL    HW2 2371   0.389   5.914   6.680
  593SOL     MW 2372   0.354   5.983   6.719
  594SOL     OW 2373   6.739   7.512   9.736
  594SOL    HW1 2374   6.827   7.527   9.700
  594SOL    HW2 2375   6.680   7.553   9.673
  594SOL     MW 2376   6.743   7.519   9.723
  595SOL     OW 2377   7.381   1.932   1.512
  595SOL    HW1 2378   7.388   2.017   1.470
  595SOL    HW2 2379   7.323   1.947   1.587
  595SOL     MW 2380   7.374   1.945   1.517
  596SOL     OW 2381   8.490   8.755   5.923
  596SOL    HW1 2382   8.422   8.777   5.987
  596SOL    HW2 2383   8.444   8.756   5.839
  596SOL     MW 2384   8.475   8.758   5.921
  597SOL     OW 2385   4.038   9.907   5.926
  597SOL    HW1 2386   3.992   9.953   5.855
  597SOL    HW2 2387   4.041   9.971   5.997
  597SOL     MW 2388   4.033   9.921   5.926
  598SOL     OW 2389   3.926   8.790   4.454
  598SOL    HW1 2390   4.016   8.778   4.425
  598SOL    HW2 2391   3.933   8.834   4.539
  598SOL     MW 2392   3.938   8.794   4.461
  599SOL     OW 2393   9.321   3.400   4.674
  599SOL    HW1 2394   9.255   3.467   4.691
  599SOL    HW2 2395   9.391   3.418   4.736
  599SOL     MW 2396   9.322   3.411   4.684
  600SOL     OW 2397   0.969   4.921   1.666
  600SOL    HW1 2398   1.009   4.864   1.732
  600SOL    HW2 2399   0.913   4.863   1.615
  600SOL     MW 2400   0.967   4.906   1.668
  601SOL     OW 2401   9.094   1.448   5.637
  601SOL    HW1 2402   9.115   1.492   5.719
  601SOL    HW2 2403   8.999   1.432   5.642
  601SOL     MW 2404   9.084   1.452   5.648
  602SOL     OW 2405   7.721   8.952   3.679
  602SOL    HW1 2406   7.728   8.862   3.646
  602SOL    HW2 2407   7.812   8.980   3.691
  602SOL     MW 2408   7.734   8.944   3.676
  603SOL     OW 2409   0.216   4.571   5.494
  603SOL    HW1 2410   0.293   4.619   5.525
  603SOL    HW2 2411   0.142   4.617   5.533
  603SOL     MW 2412   0.217   4.583   5.503
  604SOL     OW 2413   8.518   0.609   5.269
  604SOL    HW1 2414   8.523   0.701   5.240
  604SOL    HW2 2415   8.553   0.559   5.195
  604SOL     MW 2416   8.523   0.615   5.256
  605SOL     OW 2417   5.979   3.220   1.158
  605SOL    HW1 2418   5.945   3.145   1.206
  605SOL    HW2 2419   6.067   3.193   1.132
  605SOL     MW 2420   5.986   3.207   1.161
  606SOL     OW 2421   3.197   8.522   2.682
  606SOL    HW1 2422   3.253   8.598   2.667
  606SOL    HW2 2423   3.227   8.486   2.766
  606SOL     MW 2424   3.208   8.527   2.691
  607SOL     OW 2425   9.601   3.476   2.190
  607SOL    HW1 2426   9.573   3.391   2.154
  607SOL    HW2 2427   9.581   3.539   2.121
  607SOL     MW 2428   9.595   3.473   2.177
  608SOL     OW 2429   7.117   6.129   0.409
  608SOL    HW1 2430   7.046   6.072   0.379
  608SOL    HW2 2431   7.121   6.199   0.343
  608SOL     MW 2432   7.108   6.131   0.397
  609SOL     OW 2433   5.371   1.833   7.095
  609SOL    HW1 2434   5.437   1.765   7.109
  609SOL    HW2 2435   5.418   1.915   7.109
  609SOL     MW 2436   5.385   1.835   7.099
  610SOL     OW 2437   6.954   9.764   0.935
  610SOL    HW1 2438   7.012   9.744   0.862
  610SOL    HW2 2439   6.961   9.859   0.946
  610SOL     MW 2440   6.962   9.774   0.927
  611SOL     OW 2441   2.635   6.312   9.256
  611SOL    HW1 2442   2.580   6.387   9.280
  611SOL    HW2 2443   2.581   6.235   9.273
  611SOL     MW 2444   2.621   6.312   9.262
  612SOL     OW 2445   8.706   7.179   9.329
  612SOL    HW1 2446   8.685   7.252   9.387
  612SOL    HW2 2447   8.640   7.184   9.260
  612SOL     MW 2448   8.695   7.189   9.328
  613SOL     OW 2449   5.414   4.077   0.941
  613SOL    HW1 2450   5.442   4.103   0.853
  613SOL    HW2 2451   5.490   4.096   0.996
  613SOL     MW 2452   5.427   4.083   0.936
  614SOL     OW 2453   4.255   9.910   4.096
  614SOL    HW1 2454   4.250   9.946   4.008
  614SOL    HW2 2455   4.345   9.926   4.124
  614SOL     MW 2456   4.266   9.916   4.088
  615SOL     OW 2457   4.843   9.897   5.859
  615SOL    HW1 2458   4.890   9.828   5.812
  615SOL    HW2 2459   4.779   9.930   5.797
  615SOL     MW 2460   4.841   9.892   5.845
  616SOL     OW 2461   5.282   2.053   6.071
  616SOL    HW1 2462   5.260   2.044   5.978
  616SOL    HW2 2463   5.232   1.983   6.114
  616SOL     MW 2464   5.273   2.043   6.064
  617SOL     OW 2465   7.156   7.796   7.165
  617SOL    HW1 2466   7.139   7.890   7.162
  617SOL    HW2 2467   7.244   7.788   7.203
  617SOL     MW 2468   7.165   7.807   7.170
  618SOL     OW 2469   3.280   4.892  10.182
  618SOL    HW1 2470   3.319   4.980  10.176
  618SOL    HW2 2471   3.239   4.878  10.097
  618SOL     MW 2472   3.280   4.902  10.171
  619SOL     OW 2473   5.015   1.669   8.380
  619SOL    HW1 2474   4.920   1.665   8.389
  619SOL    HW2 2475   5.048   1.611   8.448
  619SOL     MW 2476   5.007   1.661   8.390
  620SOL     OW 2477   3.403   8.155   7.459
  620SOL    HW1 2478   3.332   8.097   7.487
  620SOL    HW2 2479   3.457   8.165   7.537
  620SOL     MW 2480   3.401   8.149   7.473
  621SOL     OW 2481   5.080   3.893   0.179
  621SOL    HW1 2482   5.029   3.936   0.111
  621SOL    HW2 2483   5.169   3.893   0.146
  621SOL     MW 2484   5.085   3.898   0.166
  622SOL     OW 2485   0.374   8.789  10.048
  622SOL    HW1 2486   0.429   8.867  10.043
  622SOL    HW2 2487   0.301   8.814  10.104
  622SOL     MW 2488   0.372   8.802  10.055
  623SOL     OW 2489  10.070   6.474   4.404
  623SOL    HW1 2490  10.046   6.451   4.314
  623SOL    HW2 2491  10.145   6.532   4.395
  623SOL     MW 2492  10.076   6.478   4.391
  624SOL     OW 2493   2.039   2.542   3.677
  624SOL    HW1 2494   2.001   2.454   3.687
  624SOL    HW2 2495   2.125   2.535   3.719
  624SOL     MW 2496   2.045   2.530   3.684
  625SOL     OW 2497   3.904   2.460   6.282
  625SOL    HW1 2498   3.889   2.555   6.287
  625SOL    HW2 2499   3.881   2.428   6.369
  625SOL     MW 2500   3.899   2.468   6.294
  626SOL     OW 2501   3.220   8.820   4.318
  626SOL    HW1 2502   3.205   8.739   4.270
  626SOL    HW2 2503   3.155   8.819   4.388
  626SOL     MW 2504   3.210   8.810   4.321
  627SOL     OW 2505   9.180   0.803   3.110
  627SOL    HW1 2506   9.255   0.837   3.062
  627SOL    HW2 2507   9.154   0.725   3.061
  627SOL     MW 2508   9.186   0.797   3.097
  628SOL     OW 2509   8.732   5.172   0.638
  628SOL    HW1 2510   8.650   5.211   0.609
  628SOL    HW2 2511   8.713   5.139   0.726
  628SOL     MW 2512   8.719   5.172   0.646
  629SOL     OW 2513   5.697   0.484   4.537
  629SOL    HW1 2514   5.606   0.488   4.509
  629SOL    HW2 2515   5.695   0.509   4.629
  629SOL     MW 2516   5.685   0.488   4.545
  630SOL     OW 2517   4.972   0.060   0.635
  630SOL    HW1 2518   4.886   0.101   0.623
  630SOL    HW2 2519   5.034   0.122   0.597
  630SOL     MW 2520   4.969   0.073   0.629
  631SOL     OW 2521   2.055   9.367   7.023
  631SOL    HW1 2522   1.988   9.312   7.065
  631SOL    HW2 2523   2.012   9.402   6.946
  631SOL     MW 2524   2.041   9.364   7.019
  632SOL     OW 2525   9.900   0.536   8.778
  632SOL    HW1 2526   9.913   0.625   8.812
  632SOL    HW2 2527   9.958   0.481   8.830
  632SOL     MW 2528   9.909   0.540   8.789
  633SOL     OW 2529   7.681   1.499   0.671
  633SOL    HW1 2530   7.676   1.468   0.762
  633SOL    HW2 2531   7.591   1.503   0.642
  633SOL     MW 2532   7.669   1.496   0.679
  634SOL     OW 2533   3.159   4.535   1.275
  634SOL    HW1 2534   3.130   4.460   1.223
  634SOL    HW2 2535   3.089   4.599   1.267
  634SOL     MW 2536   3.146   4.533   1.267
  635SOL     OW 2537  10.180   0.024   0.573
  635SOL    HW1 2538  10.133  -0.055   0.599
  635SOL    HW2 2539  10.168   0.028   0.478
  635SOL     MW 2540  10.173   0.014   0.564
  636SOL     OW 2541   0.850   5.295   6.420
  636SOL    HW1 2542   0.861   5.212   6.374
  636SOL    HW2 2543   0.937   5.318   6.451
  636SOL     MW 2544   0.862   5.287   6.418
  637SOL     OW 2545   7.424   2.771   8.380
  637SOL    HW1 2546   7.500   2.829   8.369
  637SOL    HW2 2547   7.398   2.783   8.471
  637SOL     MW 2548   7.431   2.780   8.390
  638SOL     OW 2549   2.219   2.133   0.660
  638SOL    HW1 2550   2.245   2.041   0.650
  638SOL    HW2 2551   2.221   2.168   0.570
  638SOL     MW 2552   2.223   2.126   0.647
  639SOL     OW 2553   0.484   4.359   9.609
  639SOL    HW1 2554   0.408   4.415   9.625
  639SOL    HW2 2555   0.508   4.325   9.696
  639SOL     MW 2556   0.478   4.362   9.622
  640SOL     OW 2557   6.532   6.164   0.244
  640SOL    HW1 2558   6.574   6.090   0.201
  640SOL    HW2 2559   6.586   6.239   0.219
  640SOL     MW 2560   6.545   6.164   0.235
  641SOL     OW 2561   6.376   6.168   5.613
  641SOL    HW1 2562   6.428   6.230   5.562
  641SOL    HW2 2563   6.320   6.125   5.548
  641SOL     MW 2564   6.376   6.170   5.598
  642SOL     OW 2565   7.668   2.273   7.373
  642SOL    HW1 2566   7.639   2.261   7.463
  642SOL    HW2 2567   7.749   2.323   7.379
  642SOL     MW 2568   7.674   2.278   7.385
  643SOL     OW 2569   0.168   6.110   6.590
  643SOL    HW1 2570   0.188   6.203   6.578
  643SOL    HW2 2571   0.084   6.109   6.636
  643SOL     MW 2572   0.160   6.122   6.594
  644SOL     OW 2573   2.713   6.023   6.294
  644SOL    HW1 2574   2.710   6.091   6.361
  644SOL    HW2 2575   2.793   5.974   6.313
  644SOL     MW 2576   2.723   6.025   6.305
  645SOL     OW 2577   9.375   5.951   1.891
  645SOL    HW1 2578   9.327   5.912   1.818
  645SOL    HW2 2579   9.325   5.927   1.969
  645SOL     MW 2580   9.362   5.943   1.891
  646SOL     OW 2581   6.228   5.950   8.165
  646SOL    HW1 2582   6.292   5.979   8.099
  646SOL    HW2 2583   6.160   6.018   8.164
  646SOL     MW 2584   6.227   5.962   8.156
  647SOL     OW 2585   9.638   1.403   1.584
  647SOL    HW1 2586   9.627   1.431   1.493
  647SOL    HW2 2587   9.731   1.383   1.592
  647SOL     MW 2588   9.648   1.404   1.574
  648SOL     OW 2589   0.869   0.673   1.955
  648SOL    HW1 2590   0.948   0.704   1.999
  648SOL    HW2 2591   0.818   0.752   1.937
  648SOL     MW 2592   0.873   0.687   1.958
  649SOL     OW 2593   8.150   3.353   2.601
  649SOL    HW1 2594   8.194   3.425   2.645
  649SOL    HW2 2595   8.138   3.383   2.511
  649SOL     MW 2596   8.154   3.366   2.595
  650SOL     OW 2597   8.793   7.485   6.402
  650SOL    HW1 2598   8.762   7.440   6.481
  650SOL    HW2 2599   8.881   7.516   6.424
  650SOL     MW 2600   8.800   7.484   6.415
  651SOL     OW 2601   7.386   1.963   4.091
  651SOL    HW1 2602   7.404   1.915   4.171
  651SOL    HW2 2603   7.293   1.947   4.073
  651SOL     MW 2604   7.376   1.955   4.099
  652SOL     OW 2605   7.891   2.054   6.525
  652SOL    HW1 2606   7.858   1.975   6.482
  652SOL    HW2 2607   7.880   2.037   6.619
  652SOL     MW 2608   7.886   2.042   6.532
  653SOL     OW 2609   1.883   3.305   5.954
  653SOL    HW1 2610   1.937   3.238   5.995
  653SOL    HW2 2611   1.796   3.265   5.946
  653SOL     MW 2612   1.879   3.292   5.958
  654SOL     OW 2613   7.649   1.992   1.533
  654SOL    HW1 2614   7.701   1.926   1.487
  654SOL    HW2 2615   7.562   1.955   1.538
  654SOL     MW 2616   7.645   1.979   1.528
  655SOL     OW 2617   9.791   4.139   9.268
  655SOL    HW1 2618   9.814   4.168   9.357
  655SOL    HW2 2619   9.699   4.162   9.258
  655SOL     MW 2620   9.782   4.145   9.278
  656SOL     OW 2621   3.515   6.264   0.124
  656SOL    HW1 2622   3.529   6.348   0.169
  656SOL    HW2 2623   3.448   6.220   0.176
  656SOL     MW 2624   3.508   6.269   0.136
  657SOL     OW 2625   8.959   8.627   6.858
  657SOL    HW1 2626   8.933   8.601   6.946
  657SOL    HW2 2627   8.877   8.632   6.809
  657SOL     MW 2628   8.945   8.624   6.863
  658SOL     OW 2629   0.348   9.877   6.017
  658SOL    HW1 2630   0.281   9.854   6.082
  658SOL    HW2 2631   0.305   9.864   5.933
  658SOL     MW 2632   0.334   9.872   6.015
  659SOL     OW 2633   3.819   2.357   6.523
  659SOL    HW1 2634   3.811   2.370   6.617
  659SOL    HW2 2635   3.852   2.268   6.514
  659SOL     MW 2636   3.822   2.347   6.534
  660SOL     OW 2637   8.128   5.973   8.221
  660SOL    HW1 2638   8.136   6.066   8.200
  660SOL    HW2 2639   8.181   5.929   8.154
  660SOL     MW 2640   8.136   5.980   8.210
  661SOL     OW 2641  10.009  10.136   3.788
  661SOL    HW1 2642  10.057  10.057   3.764
  661SOL    HW2 2643   9.920  10.105   3.807
  661SOL     MW 2644  10.004  10.122   3.787
  662SOL     OW 2645   0.753   2.591   7.496
  662SOL    HW1 2646   0.784   2.643   7.570
  662SOL    HW2 2647   0.720   2.510   7.535
  662SOL     MW 2648   0.753   2.587   7.510
  663SOL     OW 2649   8.646   5.596   9.072
  663SOL    HW1 2650   8.706   5.661   9.108
  663SOL    HW2 2651   8.569   5.600   9.129
  663SOL     MW 2652   8.644   5.605   9.084
  664SOL     OW 2653   9.516   4.636   9.507
  664SOL    HW1 2654   9.421   4.624   9.514
  664SOL    HW2 2655   9.550   4.610   9.593
  664SOL     MW 2656   9.508   4.631   9.519
  665SOL     OW 2657   6.696   5.236   3.271
  665SOL    HW1 2658   6.684   5.226   3.366
  665SOL    HW2 2659   6.647   5.164   3.233
  665SOL     MW 2660   6.688   5.225   3.278
  666SOL     OW 2661   6.113   2.729   0.733
  666SOL    HW1 2662   6.035   2.686   0.768
  666SOL    HW2 2663   6.112   2.816   0.773
  666SOL     MW 2664   6.103   2.735   0.743
  667SOL     OW 2665   4.843   9.262   7.844
  667SOL    HW1 2666   4.788   9.242   7.769
  667SOL    HW2 2667   4.793   9.231   7.920
  667SOL     MW 2668   4.830   9.255   7.844
  668SOL     OW 2669   3.018   7.887   4.116
  668SOL    HW1 2670   3.002   7.922   4.029
  668SOL    HW2 2671   3.097   7.932   4.146
  668SOL     MW 2672   3.026   7.897   4.109
  669SOL     OW 2673   3.447   1.210   7.121
  669SOL    HW1 2674   3.514   1.230   7.056
  669SOL    HW2 2675   3.392   1.143   7.079
  669SOL     MW 2676   3.448   1.204   7.107
  670SOL     OW 2677   2.418   7.808   9.261
  670SOL    HW1 2678   2.495   7.806   9.318
  670SOL    HW2 2679   2.436   7.742   9.195
  670SOL     MW 2680   2.431   7.799   9.260
  671SOL     OW 2681   3.488   8.160  10.119
  671SOL    HW1 2682   3.463   8.252  10.112
  671SOL    HW2 2683   3.486   8.141  10.213
  671SOL     MW 2684   3.484   8.169  10.130
  672SOL     OW 2685   3.795   2.286   6.101
  672SOL    HW1 2686   3.840   2.348   6.158
  672SOL    HW2 2687   3.799   2.203   6.148
  672SOL     MW 2688   3.801   2.283   6.114
  673SOL     OW 2689   4.549   3.964   6.841
  673SOL    HW1 2690   4.632   3.983   6.797
  673SOL    HW2 2691   4.510   4.049   6.858
  673SOL     MW 2692   4.554   3.977   6.837
  674SOL     OW 2693  10.065   1.463   8.938
  674SOL    HW1 2694   9.977   1.496   8.954
  674SOL    HW2 2695  10.102   1.524   8.874
  674SOL     MW 2696  10.059   1.475   8.932
  675SOL     OW 2697   7.761   4.104   2.735
  675SOL    HW1 2698   7.719   4.040   2.677
  675SOL    HW2 2699   7.688   4.150   2.776
  675SOL     MW 2700   7.746   4.101   2.733
  676SOL     OW 2701   7.154   8.184   2.536
  676SOL    HW1 2702   7.067   8.222   2.529
  676SOL    HW2 2703   7.204   8.248   2.586
  676SOL     MW 2704   7.150   8.197   2.541
  677SOL     OW 2705   9.207   9.868   4.968
  677SOL    HW1 2706   9.236   9.959   4.977
  677SOL    HW2 2707   9.194   9.856   4.874
  677SOL     MW 2708   9.209   9.878   4.957
  678SOL     OW 2709   1.530   5.799   2.440
  678SOL    HW1 2710   1.624   5.814   2.450
  678SOL    HW2 2711   1.492   5.887   2.438
  678SOL     MW 2712   1.537   5.812   2.441
  679SOL     OW 2713   8.441   3.391   1.284
  679SOL    HW1 2714   8.504   3.462   1.269
  679SOL    HW2 2715   8.386   3.391   1.206
  679SOL     MW 2716   8.442   3.400   1.272
  680SOL     OW 2717   0.828   5.914   3.902
  680SOL    HW1 2718   0.834   5.819   3.917
  680SOL    HW2 2719   0.917   5.946   3.915
  680SOL     MW 2720   0.840   5.906   3.906
  681SOL     OW 2721   6.108   8.422   7.901
  681SOL    HW1 2722   6.125   8.361   7.973
  681SOL    HW2 2723   6.016   8.445   7.911
  681SOL     MW 2724   6.098   8.417   7.912
  682SOL     OW 2725   6.785   2.106   3.839
  682SOL    HW1 2726   6.788   2.011   3.826
  682SOL    HW2 2727   6.703   2.133   3.797
  682SOL     MW 2728   6.775   2.098   3.832
  683SOL     OW 2729   1.985  10.064   5.132
  683SOL    HW1 2730   1.897  10.099   5.137
  683SOL    HW2 2731   1.980   9.998   5.063
  683SOL     MW 2732   1.973  10.060   5.123
  684SOL     OW 2733   1.098   3.527   3.732
  684SOL    HW1 2734   1.173   3.565   3.778
  684SOL    HW2 2735   1.039   3.601   3.719
  684SOL     MW 2736   1.100   3.542   3.736
  685SOL     OW 2737   2.279   8.426   6.188
  685SOL    HW1 2738   2.356   8.380   6.222
  685SOL    HW2 2739   2.261   8.494   6.254
  685SOL     MW 2740   2.287   8.429   6.201
  686SOL     OW 2741   8.557   9.788   6.498
  686SOL    HW1 2742   8.536   9.700   6.467
  686SOL    HW2 2743   8.505   9.798   6.579
  686SOL     MW 2744   8.547   9.778   6.505
  687SOL     OW 2745   6.852   9.016   5.379
  687SOL    HW1 2746   6.882   8.989   5.465
  687SOL    HW2 2747   6.860   8.938   5.325
  687SOL     MW 2748   6.857   9.003   5.383
  688SOL     OW 2749   1.982   8.645   6.505
  688SOL    HW1 2750   1.932   8.590   6.565
  688SOL    HW2 2751   1.942   8.732   6.513
  688SOL     MW 2752   1.970   8.649   6.514
  689SOL     OW 2753   7.441   6.698   5.276
  689SOL    HW1 2754   7.376   6.731   5.337
  689SOL    HW2 2755   7.481   6.623   5.321
  689SOL     MW 2756   7.438   6.692   5.289
  690SOL     OW 2757   5.148   7.789  10.107
  690SOL    HW1 2758   5.108   7.716  10.154
  690SOL    HW2 2759   5.075   7.839  10.072
  690SOL     MW 2760   5.134   7.786  10.109
  691SOL     OW 2761   6.750   1.822   5.148
  691SOL    HW1 2762   6.819   1.802   5.084
  691SOL    HW2 2763   6.797   1.835   5.230
  691SOL     MW 2764   6.765   1.821   5.150
  692SOL     OW 2765   2.326   7.241   7.374
  692SOL    HW1 2766   2.304   7.148   7.370
  692SOL    HW2 2767   2.283   7.278   7.297
  692SOL     MW 2768   2.318   7.234   7.363
  693SOL     OW 2769   1.295   6.397   8.182
  693SOL    HW1 2770   1.386   6.384   8.209
  693SOL    HW2 2771   1.244   6.362   8.255
  693SOL     MW 2772   1.300   6.391   8.195
  694SOL     OW 2773   2.282   2.664   7.012
  694SOL    HW1 2774   2.340   2.722   6.963
  694SOL    HW2 2775   2.237   2.722   7.074
  694SOL     MW 2776   2.284   2.679   7.014
  695SOL     OW 2777   1.450   0.216   1.544
  695SOL    HW1 2778   1.459   0.187   1.635
  695SOL    HW2 2779   1.385   0.158   1.506
  695SOL     MW 2780   1.443   0.205   1.551
  696SOL     OW 2781   0.639   4.015   9.713
  696SOL    HW1 2782   0.727   3.979   9.706
  696SOL    HW2 2783   0.619   4.048   9.626
  696SOL     MW 2784   0.648   4.015   9.701
  697SOL     OW 2785   4.617   2.220   1.624
  697SOL    HW1 2786   4.640   2.219   1.531
  697SOL    HW2 2787   4.580   2.307   1.639
  697SOL     MW 2788   4.615   2.231   1.614
  698SOL     OW 2789   9.101   3.750   4.109
  698SOL    HW1 2790   9.186   3.706   4.105
  698SOL    HW2 2791   9.046   3.701   4.048
  698SOL     MW 2792   9.105   3.738   4.100
  699SOL     OW 2793   3.592   1.851   3.242
  699SOL    HW1 2794   3.653   1.780   3.265
  699SOL    HW2 2795   3.511   1.830   3.288
  699SOL     MW 2796   3.590   1.839   3.251
  700SOL     OW 2797   4.444   1.326   0.349
  700SOL    HW1 2798   4.404   1.286   0.271
  700SOL    HW2 2799   4.478   1.252   0.399
  700SOL     MW 2800   4.443   1.311   0.345
  701SOL     OW 2801  10.106   4.360   8.143
  701SOL    HW1 2802  10.141   4.284   8.190
  701SOL    HW2 2803  10.117   4.433   8.204
  701SOL     MW 2804  10.112   4.360   8.157
  702SOL     OW 2805   2.962   1.491   2.326
  702SOL    HW1 2806   2.960   1.496   2.230
  702SOL    HW2 2807   3.039   1.438   2.346
  702SOL     MW 2808   2.971   1.485   2.316
  703SOL     OW 2809   2.338   1.737   2.418
  703SOL    HW1 2810   2.416   1.695   2.381
  703SOL    HW2 2811   2.273   1.667   2.422
  703SOL     MW 2812   2.340   1.723   2.414
  704SOL     OW 2813   5.320   3.720   2.374
  704SOL    HW1 2814   5.358   3.703   2.460
  704SOL    HW2 2815   5.322   3.816   2.365
  704SOL     MW 2816   5.325   3.730   2.384
  705SOL     OW 2817   2.284   7.988   9.427
  705SOL    HW1 2818   2.311   8.055   9.364
  705SOL    HW2 2819   2.315   7.906   9.389
  705SOL     MW 2820   2.292   7.986   9.414
  706SOL     OW 2821   4.070  10.041   8.225
  706SOL    HW1 2822   4.061   9.947   8.238
  706SOL    HW2 2823   4.025  10.058   8.142
  706SOL     MW 2824   4.063  10.031   8.216
  707SOL     OW 2825   3.076   6.181   4.841
  707SOL    HW1 2826   3.170   6.197   4.832
  707SOL    HW2 2827   3.059   6.105   4.784
  707SOL     MW 2828   3.086   6.173   4.833
  708SOL     OW 2829   9.473   6.614   7.342
  708SOL    HW1 2830   9.467   6.549   7.413
  708SOL    HW2 2831   9.564   6.646   7.347
  708SOL     MW 2832   9.484   6.610   7.352
  709SOL     OW 2833   6.540   1.588   9.964
  709SOL    HW1 2834   6.503   1.542   9.889
  709SOL    HW2 2835   6.624   1.622   9.933
  709SOL     MW 2836   6.546   1.587   9.951
  710SOL     OW 2837   5.479   7.113   4.283
  710SOL    HW1 2838   5.452   7.070   4.202
  710SOL    HW2 2839   5.524   7.045   4.332
  710SOL     MW 2840   5.481   7.099   4.279
  711SOL     OW 2841   3.097   5.502   3.310
  711SOL    HW1 2842   3.099   5.435   3.378
  711SOL    HW2 2843   3.030   5.473   3.249
  711SOL     MW 2844   3.089   5.490   3.311
  712SOL     OW 2845   2.470   7.944   2.936
  712SOL    HW1 2846   2.385   7.901   2.937
  712SOL    HW2 2847   2.526   7.887   2.989
  712SOL     MW 2848   2.466   7.931   2.943
  713SOL     OW 2849   6.374   9.220   9.749
  713SOL    HW1 2850   6.417   9.222   9.834
  713SOL    HW2 2851   6.443   9.242   9.686
  713SOL     MW 2852   6.389   9.223   9.752
  714SOL     OW 2853   6.989   0.876   9.784
  714SOL    HW1 2854   6.930   0.945   9.752
  714SOL    HW2 2855   6.931   0.803   9.805
  714SOL     MW 2856   6.974   0.876   9.782
  715SOL     OW 2857   6.724   6.500   6.709
  715SOL    HW1 2858   6.732   6.406   6.691
  715SOL    HW2 2859   6.812   6.527   6.737
  715SOL     MW 2860   6.736   6.491   6.710
  716SOL     OW 2861   9.499   7.992   6.820
  716SOL    HW1 2862   9.523   8.011   6.911
  716SOL    HW2 2863   9.524   8.071   6.771
  716SOL     MW 2864   9.505   8.005   6.825
  717SOL     OW 2865   8.772   8.137   2.291
  717SOL    HW1 2866   8.687   8.135   2.248
  717SOL    HW2 2867   8.793   8.045   2.308
  717SOL     MW 2868   8.764   8.125   2.288
  718SOL     OW 2869   2.100   3.473   7.717
  718SOL    HW1 2870   2.029   3.410   7.728
  718SOL    HW2 2871   2.058   3.553   7.688
  718SOL     MW 2872   2.086   3.475   7.715
  719SOL     OW 2873   3.014   0.342   9.042
  719SOL    HW1 2874   3.013   0.287   9.120
  719SOL    HW2 2875   3.058   0.422   9.069
  719SOL     MW 2876   3.020   0.345   9.055
  720SOL     OW 2877   5.692   2.934   2.981
  720SOL    HW1 2878   5.780   2.938   2.943
  720SOL    HW2 2879   5.701   2.973   3.068
  720SOL     MW 2880   5.704   2.940   2.987
  721SOL     OW 2881   5.087   4.083   2.387
  721SOL    HW1 2882   5.030   4.015   2.423
  721SOL    HW2 2883   5.037   4.164   2.398
  721SOL     MW 2884   5.074   4.084   2.393
  722SOL     OW 2885   1.321   1.173   6.657
  722SOL    HW1 2886   1.362   1.119   6.726
  722SOL    HW2 2887   1.298   1.111   6.588
  722SOL     MW 2888   1.324   1.158   6.657
  723SOL     OW 2889   1.455   6.300   3.820
  723SOL    HW1 2890   1.406   6.274   3.742
  723SOL    HW2 2891   1.466   6.395   3.811
  723SOL     MW 2892   1.450   6.309   3.809
  724SOL     OW 2893   6.761   4.400   7.746
  724SOL    HW1 2894   6.685   4.433   7.794
  724SOL    HW2 2895   6.728   4.385   7.657
  724SOL     MW 2896   6.747   4.402   7.741
  725SOL     OW 2897   3.113   9.862  10.022
  725SOL    HW1 2898   3.176   9.929  10.049
  725SOL    HW2 2899   3.106   9.874   9.927
  725SOL     MW 2900   3.121   9.872  10.013
  726SOL     OW 2901   3.752   9.216   7.511
  726SOL    HW1 2902   3.718   9.235   7.423
  726SOL    HW2 2903   3.841   9.186   7.496
  726SOL     MW 2904   3.759   9.215   7.498
  727SOL     OW 2905   0.278   2.934   6.418
  727SOL    HW1 2906   0.273   2.959   6.510
  727SOL    HW2 2907   0.297   3.016   6.372
  727SOL     MW 2908   0.280   2.948   6.424
  728SOL     OW 2909   4.122   1.587   3.127
  728SOL    HW1 2910   4.042   1.538   3.143
  728SOL    HW2 2911   4.126   1.597   3.032
  728SOL     MW 2912   4.112   1.582   3.117
  729SOL     OW 2913   5.065  10.117   0.872
  729SOL    HW1 2914   5.029  10.155   0.792
  729SOL    HW2 2915   4.998  10.055   0.902
  729SOL     MW 2916   5.052  10.114   0.866
  730SOL     OW 2917   9.720   8.724   5.712
  730SOL    HW1 2918   9.653   8.777   5.755
  730SOL    HW2 2919   9.678   8.693   5.632
  730SOL     MW 2920   9.706   8.727   5.707
  731SOL     OW 2921   7.764   5.180   9.054
  731SOL    HW1 2922   7.786   5.229   8.975
  731SOL    HW2 2923   7.795   5.234   9.127
  731SOL     MW 2924   7.771   5.193   9.053
  732SOL     OW 2925   9.903   4.146   9.017
  732SOL    HW1 2926   9.866   4.152   9.106
  732SOL    HW2 2927   9.994   4.174   9.028
  732SOL     MW 2928   9.910   4.150   9.030
  733SOL     OW 2929   7.522   9.989   3.969
  733SOL    HW1 2930   7.460  10.004   4.040
  733SOL    HW2 2931   7.573   9.914   3.998
  733SOL     MW 2932   7.520   9.981   3.982
  734SOL     OW 2933   1.344   7.656   8.088
  734SOL    HW1 2934   1.301   7.605   8.156
  734SOL    HW2 2935   1.276   7.672   8.022
  734SOL     MW 2936   1.330   7.652   8.088
  735SOL     OW 2937   2.840   7.774   7.676
  735SOL    HW1 2938   2.857   7.712   7.605
  735SOL    HW2 2939   2.750   7.755   7.703
  735SOL     MW 2940   2.831   7.763   7.671
  736SOL     OW 2941   1.567   2.047   4.522
  736SOL    HW1 2942   1.566   2.098   4.604
  736SOL    HW2 2943   1.633   2.091   4.468
  736SOL     MW 2944   1.576   2.059   4.526
  737SOL     OW 2945   5.787   9.911   4.859
  737SOL    HW1 2946   5.804   9.992   4.908
  737SOL    HW2 2947   5.714   9.934   4.801
  737SOL     MW 2948   5.780   9.924   4.857
  738SOL     OW 2949   4.107   5.757   1.344
  738SOL    HW1 2950   4.054   5.726   1.417
  738SOL    HW2 2951   4.057   5.734   1.266
  738SOL     MW 2952   4.094   5.750   1.343
  739SOL     OW 2953   1.369   9.173   0.331
  739SOL    HW1 2954   1.303   9.111   0.362
  739SOL    HW2 2955   1.332   9.210   0.251
  739SOL     MW 2956   1.355   9.170   0.325
  740SOL     OW 2957   6.395   1.085   4.425
  740SOL    HW1 2958   6.338   1.158   4.446
  740SOL    HW2 2959   6.337   1.009   4.425
  740SOL     MW 2960   6.380   1.084   4.428
  741SOL     OW 2961   6.467   2.483   0.611
  741SOL    HW1 2962   6.463   2.479   0.707
  741SOL    HW2 2963   6.506   2.568   0.592
  741SOL     MW 2964   6.471   2.493   0.621
  742SOL     OW 2965   8.633   8.360   3.557
  742SOL    HW1 2966   8.595   8.436   3.601
  742SOL    HW2 2967   8.696   8.324   3.620
  742SOL     MW 2968   8.637   8.365   3.571
  743SOL     OW 2969   0.506   7.350   0.424
  743SOL    HW1 2970   0.456   7.338   0.505
  743SOL    HW2 2971   0.476   7.280   0.367
  743SOL     MW 2972   0.496   7.340   0.427
  744SOL     OW 2973   9.889   0.402   3.892
  744SOL    HW1 2974   9.856   0.451   3.816
  744SOL    HW2 2975   9.954   0.342   3.856
  744SOL     MW 2976   9.893   0.400   3.878
  745SOL     OW 2977   1.442   6.174   4.062
  745SOL    HW1 2978   1.437   6.081   4.038
  745SOL    HW2 2979   1.451   6.220   3.979
  745SOL     MW 2980   1.442   6.168   4.048
  746SOL     OW 2981   0.807   3.594  10.001
  746SOL    HW1 2982   0.805   3.544  10.083
  746SOL    HW2 2983   0.832   3.530   9.934
  746SOL     MW 2984   0.810   3.579  10.003
  747SOL     OW 2985   3.450   6.852   1.657
  747SOL    HW1 2986   3.408   6.771   1.630
  747SOL    HW2 2987   3.501   6.829   1.735
  747SOL     MW 2988   3.451   6.839   1.663
  748SOL     OW 2989   8.348   0.552   5.490
  748SOL    HW1 2990   8.423   0.578   5.543
  748SOL    HW2 2991   8.378   0.563   5.400
  748SOL     MW 2992   8.361   0.557   5.485
  749SOL     OW 2993   1.603   5.679   0.422
  749SOL    HW1 2994   1.643   5.714   0.342
  749SOL    HW2 2995   1.576   5.756   0.470
  749SOL     MW 2996   1.605   5.693   0.418
  750SOL     OW 2997   2.986   2.711   3.429
  750SOL    HW1 2998   2.912   2.772   3.434
  750SOL    HW2 2999   2.948   2.631   3.393
  750SOL     MW 3000   2.972   2.709   3.425
  751SOL     OW 3001   7.375   8.966   5.523
  751SOL    HW1 3002   7.311   8.904   5.559
  751SOL    HW2 3003   7.460   8.929   5.544
  751SOL     MW 3004   7.377   8.954   5.530
  752SOL     OW 3005   6.595   1.451   5.964
  752SOL    HW1 3006   6.587   1.445   5.869
  752SOL    HW2 3007   6.552   1.373   5.997
  752SOL     MW 3008   6.589   1.440   5.956
  753SOL     OW 3009   8.651   9.185   9.690
  753SOL    HW1 3010   8.689   9.269   9.664
  753SOL    HW2 3011   8.559   9.191   9.662
  753SOL     MW 3012   8.644   9.196   9.683
  754SOL     OW 3013   8.259   9.878   3.117
  754SOL    HW1 3014   8.268   9.901   3.209
  754SOL    HW2 3015   8.308   9.796   3.108
  754SOL     MW 3016   8.266   9.870   3.128
  755SOL     OW 3017   5.275   8.926   9.482
  755SOL    HW1 3018   5.367   8.915   9.459
  755SOL    HW2 3019   5.237   8.839   9.472
  755SOL     MW 3020   5.282   8.914   9.478
  756SOL     OW 3021   1.639   3.182   5.945
  756SOL    HW1 3022   1.624   3.090   5.924
  756SOL    HW2 3023   1.558   3.210   5.988
  756SOL     MW 3024   1.627   3.174   5.948
  757SOL     OW 3025   8.141   5.000   9.418
  757SOL    HW1 3026   8.136   5.088   9.381
  757SOL    HW2 3027   8.209   4.956   9.367
  757SOL     MW 3028   8.149   5.006   9.406
  758SOL     OW 3029   8.175   8.737   2.473
  758SOL    HW1 3030   8.097   8.787   2.449
  758SOL    HW2 3031   8.247   8.799   2.462
  758SOL     MW 3032   8.174   8.751   2.468
  759SOL     OW 3033   2.701   2.185   4.909
  759SOL    HW1 3034   2.744   2.129   4.974
  759SOL    HW2 3035   2.765   2.194   4.839
  759SOL     MW 3036   2.714   2.179   4.908
  760SOL     OW 3037   9.236   2.697   3.383
  760SOL    HW1 3038   9.153   2.743   3.376
  760SOL    HW2 3039   9.244   2.676   3.476
  760SOL     MW 3040   9.226   2.700   3.394
  761SOL     OW 3041   1.229   6.285   9.277
  761SOL    HW1 3042   1.198   6.198   9.254
  761SOL    HW2 3043   1.314   6.292   9.233
  761SOL     MW 3044   1.236   6.275   9.269
  762SOL     OW 3045  10.015   2.052   4.657
  762SOL    HW1 3046   9.965   2.131   4.635
  762SOL    HW2 3047  10.107   2.080   4.655
  762SOL     MW 3048  10.021   2.066   4.654
  763SOL     OW 3049   8.889   1.512   2.754
  763SOL    HW1 3050   8.898   1.437   2.695
  763SOL    HW2 3051   8.809   1.495   2.804
  763SOL     MW 3052   8.880   1.500   2.753
  764SOL     OW 3053   0.999   8.771   1.250
  764SOL    HW1 3054   0.938   8.706   1.216
  764SOL    HW2 3055   0.975   8.852   1.206
  764SOL     MW 3056   0.988   8.773   1.240
  765SOL     OW 3057   8.700   9.275   3.312
  765SOL    HW1 3058   8.650   9.314   3.384
  765SOL    HW2 3059   8.663   9.314   3.233
  765SOL     MW 3060   8.689   9.285   3.311
  766SOL     OW 3061   0.398   2.215   3.277
  766SOL    HW1 3062   0.434   2.272   3.209
  766SOL    HW2 3063   0.333   2.269   3.322
  766SOL     MW 3064   0.394   2.229   3.274
  767SOL     OW 3065   6.718   5.927   5.957
  767SOL    HW1 3066   6.673   6.001   5.916
  767SOL    HW2 3067   6.665   5.851   5.934
  767SOL     MW 3068   6.705   5.927   5.949
  768SOL     OW 3069   4.976   4.571   8.316
  768SOL    HW1 3070   4.898   4.562   8.370
  768SOL    HW2 3071   5.043   4.520   8.361
  768SOL     MW 3072   4.975   4.563   8.329
  769SOL     OW 3073   3.203   1.296   7.207
  769SOL    HW1 3074   3.200   1.363   7.276
  769SOL    HW2 3075   3.297   1.285   7.189
  769SOL     MW 3076   3.215   1.303   7.213
  770SOL     OW 3077   9.570   1.200   6.480
  770SOL    HW1 3078   9.616   1.209   6.397
  770SOL    HW2 3079   9.561   1.289   6.513
  770SOL     MW 3080   9.575   1.213   6.474
  771SOL     OW 3081   5.375   3.851   1.639
  771SOL    HW1 3082   5.400   3.759   1.647
  771SOL    HW2 3083   5.309   3.852   1.569
  771SOL     MW 3084   5.370   3.840   1.631
  772SOL     OW 3085   4.981   7.570   5.455
  772SOL    HW1 3086   5.004   7.477   5.457
  772SOL    HW2 3087   4.886   7.571   5.450
  772SOL     MW 3088   4.972   7.558   5.455
  773SOL     OW 3089   9.405   8.368   2.679
  773SOL    HW1 3090   9.322   8.372   2.632
  773SOL    HW2 3091   9.467   8.334   2.614
  773SOL     MW 3092   9.403   8.364   2.664
  774SOL     OW 3093   5.330  10.075   0.805
  774SOL    HW1 3094   5.340  10.154   0.751
  774SOL    HW2 3095   5.236  10.073   0.827
  774SOL     MW 3096   5.319  10.085   0.801
  775SOL     OW 3097   9.279   2.282   3.643
  775SOL    HW1 3098   9.227   2.206   3.670
  775SOL    HW2 3099   9.369   2.248   3.636
  775SOL     MW 3100   9.284   2.268   3.646
  776SOL     OW 3101   9.549   9.274   1.165
  776SOL    HW1 3102   9.628   9.291   1.112
  776SOL    HW2 3103   9.578   9.284   1.255
  776SOL     MW 3104   9.563   9.277   1.169
  777SOL     OW 3105   8.347   6.622   5.461
  777SOL    HW1 3106   8.252   6.628   5.448
  777SOL    HW2 3107   8.357   6.590   5.550
  777SOL     MW 3108   8.336   6.619   5.470
  778SOL     OW 3109   4.164   9.481   1.977
  778SOL    HW1 3110   4.162   9.385   1.978
  778SOL    HW2 3111   4.153   9.504   1.885
  778SOL     MW 3112   4.162   9.472   1.965
  779SOL     OW 3113   4.336   8.686   2.892
  779SOL    HW1 3114   4.359   8.612   2.836
  779SOL    HW2 3115   4.418   8.735   2.902
  779SOL     MW 3116   4.349   8.682   2.886
  780SOL     OW 3117   0.324   3.191   6.315
  780SOL    HW1 3118   0.249   3.250   6.324
  780SOL    HW2 3119   0.371   3.224   6.239
  780SOL     MW 3120   0.320   3.202   6.307
  781SOL     OW 3121   0.651   9.272   3.813
  781SOL    HW1 3122   0.656   9.283   3.908
  781SOL    HW2 3123   0.741   9.253   3.786
  781SOL     MW 3124   0.663   9.271   3.822
  782SOL     OW 3125   3.853   0.830   4.350
  782SOL    HW1 3126   3.799   0.829   4.429
  782SOL    HW2 3127   3.793   0.856   4.280
  782SOL     MW 3128   3.838   0.834   4.351
  783SOL     OW 3129   9.756   1.370   4.550
  783SOL    HW1 3130   9.759   1.454   4.595
  783SOL    HW2 3131   9.824   1.376   4.483
  783SOL     MW 3132   9.765   1.382   4.547
  784SOL     OW 3133   6.592   1.711   7.578
  784SOL    HW1 3134   6.579   1.628   7.533
  784SOL    HW2 3135   6.506   1.752   7.578
  784SOL     MW 3136   6.579   1.706   7.572
  785SOL     OW 3137   0.002   4.271   0.124
  785SOL    HW1 3138   0.081   4.229   0.092
  785SOL    HW2 3139  -0.061   4.199   0.134
  785SOL     MW 3140   0.004   4.256   0.121
  786SOL     OW 3141   8.769   0.502   8.806
  786SOL    HW1 3142   8.768   0.519   8.900
  786SOL    HW2 3143   8.716   0.423   8.795
  786SOL     MW 3144   8.762   0.494   8.816
  787SOL     OW 3145   6.148   3.913   1.744
  787SOL    HW1 3146   6.207   3.973   1.789
  787SOL    HW2 3147   6.140   3.838   1.804
  787SOL     MW 3148   6.155   3.911   1.758
  788SOL     OW 3149   9.742   5.704   0.784
  788SOL    HW1 3150   9.802   5.777   0.801
  788SOL    HW2 3151   9.765   5.674   0.695
  788SOL     MW 3152   9.753   5.709   0.774
  789SOL     OW 3153   8.475   7.251   7.073
  789SOL    HW1 3154   8.424   7.199   7.011
  789SOL    HW2 3155   8.566   7.242   7.044
  789SOL     MW 3156   8.480   7.243   7.062
  790SOL     OW 3157   5.396   0.605   6.919
  790SOL    HW1 3158   5.332   0.633   6.854
  790SOL    HW2 3159   5.354   0.620   7.003
  790SOL     MW 3160   5.383   0.610   6.921
  791SOL     OW 3161   5.287   6.179   2.512
  791SOL    HW1 3162   5.296   6.146   2.602
  791SOL    HW2 3163   5.350   6.251   2.507
  791SOL     MW 3164   5.296   6.184   2.523
  792SOL     OW 3165   8.134   1.828   2.937
  792SOL    HW1 3166   8.148   1.921   2.922
  792SOL    HW2 3167   8.039   1.816   2.936
  792SOL     MW 3168   8.124   1.838   2.935
  793SOL     OW 3169   4.189   5.787   6.232
  793SOL    HW1 3170   4.189   5.737   6.313
  793SOL    HW2 3171   4.097   5.796   6.209
  793SOL     MW 3172   4.177   5.782   6.239
  794SOL     OW 3173   6.561   2.211   3.715
  794SOL    HW1 3174   6.465   2.212   3.706
  794SOL    HW2 3175   6.593   2.253   3.635
  794SOL     MW 3176   6.553   2.217   3.704
  795SOL     OW 3177   6.591   0.081   8.681
  795SOL    HW1 3178   6.586   0.067   8.776
  795SOL    HW2 3179   6.606   0.175   8.672
  795SOL     MW 3180   6.592   0.091   8.692
  796SOL     OW 3181   1.483   1.112   9.890
  796SOL    HW1 3182   1.505   1.192   9.843
  796SOL    HW2 3183   1.419   1.068   9.834
  796SOL     MW 3184   1.477   1.116   9.877
  797SOL     OW 3185   8.322   6.979   3.735
  797SOL    HW1 3186   8.391   6.917   3.757
  797SOL    HW2 3187   8.319   6.980   3.640
  797SOL     MW 3188   8.330   6.971   3.726
  798SOL     OW 3189   1.581   5.067   0.761
  798SOL    HW1 3190   1.635   5.131   0.715
  798SOL    HW2 3191   1.575   5.100   0.851
  798SOL     MW 3192   1.587   5.079   0.767
  799SOL     OW 3193   5.952   8.955   1.369
  799SOL    HW1 3194   6.023   9.017   1.387
  799SOL    HW2 3195   5.972   8.920   1.282
  799SOL     MW 3196   5.964   8.959   1.360
  800SOL     OW 3197   5.282   1.012   9.267
  800SOL    HW1 3198   5.249   1.011   9.177
  800SOL    HW2 3199   5.300   0.920   9.286
  800SOL     MW 3200   5.280   1.000   9.258
  801SOL     OW 3201   0.508   6.524   0.616
  801SOL    HW1 3202   0.530   6.477   0.536
  801SOL    HW2 3203   0.592   6.548   0.654
  801SOL     MW 3204   0.522   6.521   0.611
  802SOL     OW 3205   2.928   6.855   3.953
  802SOL    HW1 3206   2.875   6.843   3.874
  802SOL    HW2 3207   2.870   6.831   4.025
  802SOL     MW 3208   2.914   6.850   3.952
  803SOL     OW 3209   9.715   5.277   3.971
  803SOL    HW1 3210   9.704   5.234   4.056
  803SOL    HW2 3211   9.672   5.362   3.981
  803SOL     MW 3212   9.708   5.282   3.983
  804SOL     OW 3213   0.484  10.119   6.358
  804SOL    HW1 3214   0.496  10.109   6.264
  804SOL    HW2 3215   0.407  10.066   6.378
  804SOL     MW 3216   0.476  10.111   6.349
  805SOL     OW 3217   8.843   4.972   1.087
  805SOL    HW1 3218   8.925   4.961   1.040
  805SOL    HW2 3219   8.868   4.983   1.179
  805SOL     MW 3220   8.856   4.972   1.093
  806SOL     OW 3221   0.225   5.126   1.644
  806SOL    HW1 3222   0.191   5.096   1.560
  806SOL    HW2 3223   0.203   5.219   1.646
  806SOL     MW 3224   0.218   5.134   1.633
  807SOL     OW 3225   4.446   5.529   0.948
  807SOL    HW1 3226   4.524   5.521   1.002
  807SOL    HW2 3227   4.478   5.538   0.858
  807SOL     MW 3228   4.460   5.529   0.943
  808SOL     OW 3229   6.725   4.217   9.889
  808SOL    HW1 3230   6.816   4.202   9.916
  808SOL    HW2 3231   6.730   4.290   9.827
  808SOL     MW 3232   6.737   4.224   9.884
  809SOL     OW 3233   2.502   2.254   3.071
  809SOL    HW1 3234   2.521   2.245   2.978
  809SOL    HW2 3235   2.420   2.207   3.084
  809SOL     MW 3236   2.494   2.247   3.061
  810SOL     OW 3237   1.818   4.038   2.969
  810SOL    HW1 3238   1.836   3.954   3.011
  810SOL    HW2 3239   1.831   4.022   2.876
  810SOL     MW 3240   1.822   4.025   2.963
  811SOL     OW 3241   8.883   7.283   3.335
  811SOL    HW1 3242   8.976   7.269   3.316
  811SOL    HW2 3243   8.876   7.378   3.346
  811SOL     MW 3244   8.894   7.294   3.334
  812SOL     OW 3245   9.090   4.946   0.974
  812SOL    HW1 3246   9.119   4.968   0.886
  812SOL    HW2 3247   9.150   4.877   1.003
  812SOL     MW 3248   9.101   4.940   0.967
  813SOL     OW 3249   5.008   5.873   1.232
  813SOL    HW1 3250   4.951   5.907   1.301
  813SOL    HW2 3251   5.045   5.952   1.190
  813SOL     MW 3252   5.005   5.888   1.235
  814SOL     OW 3253   3.236   0.375   2.674
  814SOL    HW1 3254   3.177   0.300   2.672
  814SOL    HW2 3255   3.181   0.449   2.649
  814SOL     MW 3256   3.221   0.375   2.671
  815SOL     OW 3257   1.300   1.057   9.684
  815SOL    HW1 3258   1.296   0.967   9.653
  815SOL    HW2 3259   1.209   1.079   9.708
  815SOL     MW 3260   1.288   1.049   9.683
  816SOL     OW 3261   7.647   2.933   8.369
  816SOL    HW1 3262   7.724   2.878   8.384
  816SOL    HW2 3263   7.653   3.001   8.435
  816SOL     MW 3264   7.658   2.934   8.379
  817SOL     OW 3265   9.228   6.765   4.492
  817SOL    HW1 3266   9.249   6.833   4.428
  817SOL    HW2 3267   9.142   6.789   4.525
  817SOL     MW 3268   9.220   6.777   4.488
  818SOL     OW 3269   8.788   3.444   5.572
  818SOL    HW1 3270   8.869   3.495   5.571
  818SOL    HW2 3271   8.801   3.380   5.643
  818SOL     MW 3272   8.800   3.442   5.581
  819SOL     OW 3273   2.444   6.109   7.383
  819SOL    HW1 3274   2.464   6.136   7.472
  819SOL    HW2 3275   2.351   6.129   7.371
  819SOL     MW 3276   2.435   6.115   7.393
  820SOL     OW 3277   0.284   3.613   1.371
  820SOL    HW1 3278   0.256   3.690   1.323
  820SOL    HW2 3279   0.344   3.646   1.437
  820SOL     MW 3280   0.288   3.627   1.373
  821SOL     OW 3281   8.546   2.973   6.482
  821SOL    HW1 3282   8.539   3.027   6.403
  821SOL    HW2 3283   8.482   3.011   6.543
  821SOL     MW 3284   8.537   2.985   6.480
  822SOL     OW 3285   5.757   4.869   1.896
  822SOL    HW1 3286   5.672   4.847   1.857
  822SOL    HW2 3287   5.735   4.906   1.982
  822SOL     MW 3288   5.743   4.871   1.902
  823SOL     OW 3289   4.120   2.290   3.729
  823SOL    HW1 3290   4.129   2.195   3.742
  823SOL    HW2 3291   4.183   2.310   3.659
  823SOL     MW 3292   4.129   2.280   3.722
  824SOL     OW 3293   8.840  10.115   3.832
  824SOL    HW1 3294   8.866  10.122   3.924
  824SOL    HW2 3295   8.765  10.056   3.833
  824SOL     MW 3296   8.834  10.109   3.844
  825SOL     OW 3297   0.138   6.401   5.357
  825SOL    HW1 3298   0.160   6.430   5.446
  825SOL    HW2 3299   0.071   6.462   5.328
  825SOL     MW 3300   0.133   6.413   5.365
  826SOL     OW 3301   8.159   3.177   5.195
  826SOL    HW1 3302   8.089   3.213   5.249
  826SOL    HW2 3303   8.238   3.221   5.226
  826SOL     MW 3304   8.160   3.187   5.206
  827SOL     OW 3305   5.157   0.100   1.085
  827SOL    HW1 3306   5.095   0.085   1.157
  827SOL    HW2 3307   5.119   0.051   1.011
  827SOL     MW 3308   5.144   0.092   1.085
  828SOL     OW 3309   3.909   9.952   0.722
  828SOL    HW1 3310   3.828   9.955   0.774
  828SOL    HW2 3311   3.907  10.032   0.671
  828SOL     MW 3312   3.898   9.962   0.722
  829SOL     OW 3313   2.371   5.303   2.873
  829SOL    HW1 3314   2.300   5.256   2.916
  829SOL    HW2 3315   2.360   5.394   2.900
  829SOL     MW 3316   2.360   5.309   2.882
  830SOL     OW 3317   9.580   5.322   6.493
  830SOL    HW1 3318   9.568   5.234   6.459
  830SOL    HW2 3319   9.616   5.372   6.419
  830SOL     MW 3320   9.583   5.317   6.479
  831SOL     OW 3321   8.088   1.357   5.656
  831SOL    HW1 3322   8.087   1.378   5.750
  831SOL    HW2 3323   8.014   1.298   5.644
  831SOL     MW 3324   8.079   1.352   5.667
  832SOL     OW 3325   3.399   2.550   4.034
  832SOL    HW1 3326   3.355   2.524   4.116
  832SOL    HW2 3327   3.412   2.469   3.986
  832SOL     MW 3328   3.395   2.537   4.039
  833SOL     OW 3329   6.181   5.719   1.189
  833SOL    HW1 3330   6.194   5.730   1.283
  833SOL    HW2 3331   6.198   5.626   1.173
  833SOL     MW 3332   6.185   5.708   1.199
  834SOL     OW 3333   1.577   9.444   4.642
  834SOL    HW1 3334   1.484   9.464   4.635
  834SOL    HW2 3335   1.591   9.369   4.584
  834SOL     MW 3336   1.567   9.437   4.634
  835SOL     OW 3337   3.524   3.972   1.869
  835SOL    HW1 3338   3.482   4.043   1.822
  835SOL    HW2 3339   3.473   3.963   1.950
  835SOL     MW 3340   3.512   3.980   1.873
  836SOL     OW 3341  10.065   0.405   1.065
  836SOL    HW1 3342  10.027   0.321   1.040
  836SOL    HW2 3343  10.116   0.387   1.144
  836SOL     MW 3344  10.067   0.392   1.072
  837SOL     OW 3345   7.036   6.286   7.508
  837SOL    HW1 3346   6.962   6.249   7.461
  837SOL    HW2 3347   7.003   6.366   7.547
  837SOL     MW 3348   7.022   6.291   7.507
  838SOL     OW 3349   1.716   1.291   1.753
  838SOL    HW1 3350   1.752   1.238   1.824
  838SOL    HW2 3351   1.729   1.238   1.674
  838SOL     MW 3352   1.722   1.278   1.752
  839SOL     OW 3353   0.304   6.861   1.622
  839SOL    HW1 3354   0.351   6.875   1.540
  839SOL    HW2 3355   0.272   6.947   1.647
  839SOL     MW 3356   0.306   6.873   1.615
  840SOL     OW 3357   5.454   0.428   4.419
  840SOL    HW1 3358   5.434   0.482   4.342
  840SOL    HW2 3359   5.509   0.357   4.385
  840SOL     MW 3360   5.459   0.426   4.405
  841SOL     OW 3361   1.286   6.977   0.527
  841SOL    HW1 3362   1.317   6.896   0.568
  841SOL    HW2 3363   1.194   6.960   0.507
  841SOL     MW 3364   1.278   6.964   0.530
  842SOL     OW 3365  10.124   4.905   0.555
  842SOL    HW1 3366  10.082   4.976   0.604
  842SOL    HW2 3367  10.159   4.847   0.623
  842SOL     MW 3368  10.123   4.907   0.570
  843SOL     OW 3369   3.647   2.831   7.833
  843SOL    HW1 3370   3.587   2.844   7.759
  843SOL    HW2 3371   3.590   2.829   7.910
  843SOL     MW 3372   3.632   2.832   7.833
  844SOL     OW 3373   6.073   4.546   1.742
  844SOL    HW1 3374   6.131   4.553   1.666
  844SOL    HW2 3375   6.080   4.454   1.769
  844SOL     MW 3376   6.081   4.535   1.736
  845SOL     OW 3377   2.181   9.486   0.861
  845SOL    HW1 3378   2.152   9.504   0.772
  845SOL    HW2 3379   2.208   9.571   0.895
  845SOL     MW 3380   2.181   9.499   0.854
  846SOL     OW 3381   4.270   0.315   7.139
  846SOL    HW1 3382   4.230   0.247   7.086
  846SOL    HW2 3383   4.315   0.267   7.209
  846SOL     MW 3384   4.271   0.300   7.141
  847SOL     OW 3385   8.360   5.481   4.947
  847SOL    HW1 3386   8.429   5.540   4.917
  847SOL    HW2 3387   8.291   5.540   4.979
  847SOL     MW 3388   8.360   5.496   4.947
  848SOL     OW 3389   5.024   1.421   6.101
  848SOL    HW1 3390   4.959   1.384   6.160
  848SOL    HW2 3391   5.095   1.449   6.158
  848SOL     MW 3392   5.025   1.420   6.116
  849SOL     OW 3393   5.835   7.719   5.627
  849SOL    HW1 3394   5.872   7.784   5.568
  849SOL    HW2 3395   5.753   7.758   5.656
  849SOL     MW 3396   5.829   7.733   5.623
  850SOL     OW 3397   2.653   2.891   0.199
  850SOL    HW1 3398   2.599   2.820   0.233
  850SOL    HW2 3399   2.605   2.971   0.222
  850SOL     MW 3400   2.640   2.892   0.206
  851SOL     OW 3401   9.162   8.384   2.511
  851SOL    HW1 3402   9.118   8.332   2.444
  851SOL    HW2 3403   9.096   8.449   2.537
  851SOL     MW 3404   9.148   8.386   2.505
  852SOL     OW 3405   1.732   0.906   4.066
  852SOL    HW1 3406   1.706   0.831   4.012
  852SOL    HW2 3407   1.651   0.954   4.080
  852SOL     MW 3408   1.719   0.902   4.061
  853SOL     OW 3409   3.911   5.756   4.549
  853SOL    HW1 3410   3.849   5.734   4.479
  853SOL    HW2 3411   3.981   5.805   4.506
  853SOL     MW 3412   3.912   5.760   4.535
  854SOL     OW 3413   1.283   6.917   6.120
  854SOL    HW1 3414   1.329   6.840   6.153
  854SOL    HW2 3415   1.276   6.901   6.026
  854SOL     MW 3416   1.288   6.905   6.112
  855SOL     OW 3417   3.710   5.673   4.377
  855SOL    HW1 3418   3.639   5.737   4.385
  855SOL    HW2 3419   3.698   5.635   4.290
  855SOL     MW 3420   3.699   5.676   4.367
  856SOL     OW 3421   7.293   1.720   0.749
  856SOL    HW1 3422   7.329   1.804   0.777
  856SOL    HW2 3423   7.207   1.716   0.792
  856SOL     MW 3424   7.286   1.730   0.758
  857SOL     OW 3425   1.811  10.105   9.525
  857SOL    HW1 3426   1.795  10.151   9.607
  857SOL    HW2 3427   1.727  10.064   9.504
  857SOL     MW 3428   1.798  10.106   9.533
  858SOL     OW 3429   6.449   0.137   7.833
  858SOL    HW1 3430   6.397   0.073   7.784
  858SOL    HW2 3431   6.391   0.212   7.843
  858SOL     MW 3432   6.435   0.138   7.828
  859SOL     OW 3433   4.762   8.583   4.562
  859SOL    HW1 3434   4.817   8.514   4.599
  859SOL    HW2 3435   4.766   8.568   4.468
  859SOL     MW 3436   4.770   8.572   4.555
  860SOL     OW 3437  10.054   4.711   6.766
  860SOL    HW1 3438  10.132   4.747   6.723
  860SOL    HW2 3439   9.982   4.760   6.726
  860SOL     MW 3440  10.055   4.722   6.755
  861SOL     OW 3441   0.645   3.004   2.559
  861SOL    HW1 3442   0.588   3.080   2.551
  861SOL    HW2 3443   0.680   3.010   2.648
  861SOL     MW 3444   0.642   3.015   2.569
  862SOL     OW 3445   2.911   4.535   6.080
  862SOL    HW1 3446   2.929   4.617   6.033
  862SOL    HW2 3447   2.821   4.514   6.058
  862SOL     MW 3448   2.902   4.543   6.071
  863SOL     OW 3449   0.284   1.940   9.520
  863SOL    HW1 3450   0.296   1.987   9.437
  863SOL    HW2 3451   0.275   2.010   9.585
  863SOL     MW 3452   0.285   1.955   9.518
  864SOL     OW 3453  10.090  10.064   8.407
  864SOL    HW1 3454  10.093  10.160   8.404
  864SOL    HW2 3455  10.007  10.044   8.451
  864SOL     MW 3456  10.080  10.074   8.413
  865SOL     OW 3457   3.010   4.892   3.973
  865SOL    HW1 3458   2.932   4.881   3.918
  865SOL    HW2 3459   2.974   4.907   4.061
  865SOL     MW 3460   2.995   4.892   3.977
  866SOL     OW 3461  10.162   7.553   8.331
  866SOL    HW1 3462  10.097   7.482   8.334
  866SOL    HW2 3463  10.171   7.581   8.422
  866SOL     MW 3464  10.155   7.547   8.343
  867SOL     OW 3465   0.003   2.556   5.360
  867SOL    HW1 3466   0.042   2.601   5.285
  867SOL    HW2 3467   0.073   2.499   5.392
  867SOL     MW 3468   0.017   2.555   5.354
  868SOL     OW 3469   9.748   9.234   0.957
  868SOL    HW1 3470   9.663   9.199   0.929
  868SOL    HW2 3471   9.791   9.160   0.999
  868SOL     MW 3472   9.742   9.220   0.959
  869SOL     OW 3473   8.786   1.996   9.096
  869SOL    HW1 3474   8.770   2.085   9.064
  869SOL    HW2 3475   8.707   1.947   9.073
  869SOL     MW 3476   8.774   2.001   9.089
  870SOL     OW 3477   8.884   5.962   8.995
  870SOL    HW1 3478   8.870   5.889   9.055
  870SOL    HW2 3479   8.891   6.039   9.052
  870SOL     MW 3480   8.883   5.963   9.010
  871SOL     OW 3481   8.070   9.674   4.905
  871SOL    HW1 3482   8.103   9.763   4.917
  871SOL    HW2 3483   8.137   9.618   4.944
  871SOL     MW 3484   8.083   9.678   4.912
  872SOL     OW 3485   6.103   8.437   7.619
  872SOL    HW1 3486   6.146   8.522   7.630
  872SOL    HW2 3487   6.107   8.397   7.706
  872SOL     MW 3488   6.109   8.443   7.632
  873SOL     OW 3489   6.126   4.716   9.007
  873SOL    HW1 3490   6.177   4.636   9.023
  873SOL    HW2 3491   6.035   4.690   9.020
  873SOL     MW 3492   6.121   4.703   9.010
  874SOL     OW 3493   0.175   3.147   8.887
  874SOL    HW1 3494   0.220   3.179   8.965
  874SOL    HW2 3495   0.117   3.078   8.919
  874SOL     MW 3496   0.173   3.143   8.901
  875SOL     OW 3497   1.106   9.173   4.792
  875SOL    HW1 3498   1.015   9.163   4.817
  875SOL    HW2 3499   1.155   9.142   4.868
  875SOL     MW 3500   1.101   9.168   4.805
  876SOL     OW 3501   7.941   2.947   0.211
  876SOL    HW1 3502   8.022   2.997   0.218
  876SOL    HW2 3503   7.875   3.012   0.185
  876SOL     MW 3504   7.943   2.962   0.209
  877SOL     OW 3505   0.883   7.534   0.862
  877SOL    HW1 3506   0.935   7.454   0.857
  877SOL    HW2 3507   0.862   7.555   0.772
  877SOL     MW 3508   0.887   7.527   0.850
  878SOL     OW 3509   6.034   4.049   0.914
  878SOL    HW1 3510   5.987   4.076   0.993
  878SOL    HW2 3511   6.064   4.132   0.876
  878SOL     MW 3512   6.032   4.063   0.919
  879SOL     OW 3513   2.253   0.536   8.962
  879SOL    HW1 3514   2.270   0.455   8.914
  879SOL    HW2 3515   2.272   0.514   9.053
  879SOL     MW 3516   2.258   0.522   8.967
  880SOL     OW 3517   1.494   1.065   6.852
  880SOL    HW1 3518   1.548   1.137   6.820
  880SOL    HW2 3519   1.521   1.053   6.943
  880SOL     MW 3520   1.505   1.072   6.860
  881SOL     OW 3521   5.541   7.108  10.122
  881SOL    HW1 3522   5.538   7.202  10.140
  881SOL    HW2 3523   5.589   7.070  10.195
  881SOL     MW 3524   5.546   7.115  10.134
  882SOL     OW 3525   2.393  10.030   6.985
  882SOL    HW1 3526   2.341  10.052   7.062
  882SOL    HW2 3527   2.436   9.947   7.007
  882SOL     MW 3528   2.392  10.022   6.998
  883SOL     OW 3529   7.437   1.572   0.571
  883SOL    HW1 3530   7.496   1.639   0.535
  883SOL    HW2 3531   7.381   1.619   0.632
  883SOL     MW 3532   7.438   1.587   0.574
  884SOL     OW 3533   4.554   5.060   3.375
  884SOL    HW1 3534   4.497   5.121   3.327
  884SOL    HW2 3535   4.614   5.117   3.424
  884SOL     MW 3536   4.554   5.075   3.375
  885SOL     OW 3537   9.160   2.004   8.488
  885SOL    HW1 3538   9.185   1.928   8.540
  885SOL    HW2 3539   9.106   1.969   8.417
  885SOL     MW 3540   9.156   1.990   8.486
  886SOL     OW 3541   7.192   0.984   3.884
  886SOL    HW1 3542   7.260   0.931   3.843
  886SOL    HW2 3543   7.199   1.069   3.840
  886SOL     MW 3544   7.202   0.988   3.873
  887SOL     OW 3545   3.037   0.619   6.921
  887SOL    HW1 3546   3.079   0.687   6.973
  887SOL    HW2 3547   2.944   0.644   6.920
  887SOL     MW 3548   3.030   0.631   6.928
  888SOL     OW 3549   7.689   1.731   4.197
  888SOL    HW1 3550   7.674   1.793   4.126
  888SOL    HW2 3551   7.722   1.652   4.154
  888SOL     MW 3552   7.692   1.729   4.182
  889SOL     OW 3553   9.032   3.573   5.582
  889SOL    HW1 3554   9.070   3.630   5.648
  889SOL    HW2 3555   9.098   3.570   5.512
  889SOL     MW 3556   9.045   3.580   5.581
  890SOL     OW 3557   3.524   5.673   7.827
  890SOL    HW1 3558   3.440   5.651   7.788
  890SOL    HW2 3559   3.587   5.618   7.781
  890SOL     MW 3560   3.522   5.663   7.816
  891SOL     OW 3561   9.737   7.354   7.886
  891SOL    HW1 3562   9.832   7.359   7.871
  891SOL    HW2 3563   9.727   7.376   7.978
  891SOL     MW 3564   9.748   7.358   7.896
  892SOL     OW 3565   5.655   2.349   8.166
  892SOL    HW1 3566   5.568   2.312   8.152
  892SOL    HW2 3567   5.676   2.329   8.257
  892SOL     MW 3568   5.647   2.342   8.175
  893SOL     OW 3569   9.276   9.000   5.076
  893SOL    HW1 3570   9.352   8.942   5.065
  893SOL    HW2 3571   9.225   8.960   5.145
  893SOL     MW 3572   9.279   8.987   5.083
  894SOL     OW 3573   8.958   9.043   1.432
  894SOL    HW1 3574   8.981   9.123   1.480
  894SOL    HW2 3575   9.006   9.050   1.349
  894SOL     MW 3576   8.967   9.054   1.427
  895SOL     OW 3577   5.516   6.403   7.353
  895SOL    HW1 3578   5.590   6.355   7.316
  895SOL    HW2 3579   5.545   6.494   7.356
  895SOL     MW 3580   5.529   6.409   7.349
  896SOL     OW 3581   9.047   4.380   1.728
  896SOL    HW1 3582   9.133   4.347   1.753
  896SOL    HW2 3583   9.066   4.453   1.669
  896SOL     MW 3584   9.061   4.385   1.724
  897SOL     OW 3585   0.740   9.973   7.260
  897SOL    HW1 3586   0.766   9.930   7.179
  897SOL    HW2 3587   0.683  10.045   7.232
  897SOL     MW 3588   0.736   9.977   7.246
  898SOL     OW 3589   4.673   8.924   4.815
  898SOL    HW1 3590   4.762   8.955   4.833
  898SOL    HW2 3591   4.674   8.901   4.722
  898SOL     MW 3592   4.685   8.925   4.805
  899SOL     OW 3593   8.628   0.993   4.967
  899SOL    HW1 3594   8.560   1.054   4.994
  899SOL    HW2 3595   8.674   1.038   4.896
  899SOL     MW 3596   8.625   1.006   4.961
  900SOL     OW 3597   4.626   8.446   4.096
  900SOL    HW1 3598   4.675   8.482   4.170
  900SOL    HW2 3599   4.583   8.523   4.057
  900SOL     MW 3600   4.626   8.461   4.100
  901SOL     OW 3601   2.577   2.118   2.400
  901SOL    HW1 3602   2.587   2.074   2.315
  901SOL    HW2 3603   2.595   2.210   2.382
  901SOL     MW 3604   2.581   2.124   2.387
  902SOL     OW 3605   0.224   3.329   8.394
  902SOL    HW1 3606   0.140   3.372   8.409
  902SOL    HW2 3607   0.242   3.282   8.476
  902SOL     MW 3608   0.215   3.328   8.406
  903SOL     OW 3609   8.449   4.732   7.403
  903SOL    HW1 3610   8.541   4.716   7.425
  903SOL    HW2 3611   8.448   4.740   7.308
  903SOL     MW 3612   8.460   4.731   7.394
  904SOL     OW 3613   0.051   0.243   8.170
  904SOL    HW1 3614   0.145   0.261   8.171
  904SOL    HW2 3615   0.040   0.175   8.105
  904SOL     MW 3616   0.062   0.237   8.162
  905SOL     OW 3617   9.596   8.628   5.485
  905SOL    HW1 3618   9.504   8.605   5.499
  905SOL    HW2 3619   9.641   8.544   5.475
  905SOL     MW 3620   9.590   8.614   5.486
  906SOL     OW 3621   6.466   3.318   6.478
  906SOL    HW1 3622   6.477   3.263   6.555
  906SOL    HW2 3623   6.412   3.266   6.418
  906SOL     MW 3624   6.460   3.304   6.480
  907SOL     OW 3625   3.136   0.570   9.127
  907SOL    HW1 3626   3.111   0.654   9.087
  907SOL    HW2 3627   3.232   0.574   9.130
  907SOL     MW 3628   3.145   0.581   9.122
  908SOL     OW 3629   7.418   7.376   4.256
  908SOL    HW1 3630   7.434   7.458   4.209
  908SOL    HW2 3631   7.496   7.365   4.311
  908SOL     MW 3632   7.430   7.385   4.257
  909SOL     OW 3633   9.413   9.751   9.745
  909SOL    HW1 3634   9.376   9.777   9.830
  909SOL    HW2 3635   9.374   9.812   9.683
  909SOL     MW 3636   9.403   9.762   9.748
  910SOL     OW 3637   3.642   0.573   1.460
  910SOL    HW1 3638   3.735   0.584   1.476
  910SOL    HW2 3639   3.623   0.483   1.484
  910SOL     MW 3640   3.651   0.563   1.465
  911SOL     OW 3641   8.375   4.192   3.038
  911SOL    HW1 3642   8.458   4.152   3.011
  911SOL    HW2 3643   8.385   4.285   3.018
  911SOL     MW 3644   8.387   4.198   3.032
  912SOL     OW 3645   7.287   9.930   7.220
  912SOL    HW1 3646   7.316   9.870   7.151
  912SOL    HW2 3647   7.204   9.895   7.250
  912SOL     MW 3648   7.280   9.918   7.215
  913SOL     OW 3649   4.505   6.230   9.300
  913SOL    HW1 3650   4.472   6.196   9.383
  913SOL    HW2 3651   4.481   6.323   9.301
  913SOL     MW 3652   4.497   6.238   9.311
  914SOL     OW 3653   1.505   7.250   4.360
  914SOL    HW1 3654   1.442   7.300   4.309
  914SOL    HW2 3655   1.589   7.294   4.345
  914SOL     MW 3656   1.508   7.262   4.352
  915SOL     OW 3657   0.267   1.277   7.274
  915SOL    HW1 3658   0.217   1.319   7.204
  915SOL    HW2 3659   0.358   1.300   7.255
  915SOL     MW 3660   0.272   1.285   7.262
  916SOL     OW 3661   6.797   2.785   8.399
  916SOL    HW1 3662   6.734   2.809   8.331
  916SOL    HW2 3663   6.749   2.796   8.481
  916SOL     MW 3664   6.783   2.789   8.401
  917SOL     OW 3665  10.075   6.775   5.852
  917SOL    HW1 3666  10.138   6.703   5.861
  917SOL    HW2 3667  10.097   6.834   5.924
  917SOL     MW 3668  10.086   6.773   5.863
  918SOL     OW 3669   1.888   2.943   1.230
  918SOL    HW1 3670   1.819   2.989   1.277
  918SOL    HW2 3671   1.926   2.884   1.295
  918SOL     MW 3672   1.884   2.941   1.244
  919SOL     OW 3673   0.360   6.091   3.082
  919SOL    HW1 3674   0.353   6.017   3.143
  919SOL    HW2 3675   0.413   6.058   3.010
  919SOL     MW 3676   0.366   6.077   3.081
  920SOL     OW 3677   2.223   1.866   0.847
  920SOL    HW1 3678   2.246   1.821   0.929
  920SOL    HW2 3679   2.188   1.951   0.876
  920SOL     MW 3680   2.221   1.871   0.861
  921SOL     OW 3681   7.773   1.820   1.941
  921SOL    HW1 3682   7.718   1.758   1.989
  921SOL    HW2 3683   7.836   1.851   2.006
  921SOL     MW 3684   7.774   1.816   1.956
  922SOL     OW 3685   6.620   0.528   7.016
  922SOL    HW1 3686   6.529   0.505   7.034
  922SOL    HW2 3687   6.664   0.517   7.100
  922SOL     MW 3688   6.614   0.523   7.029
  923SOL     OW 3689   1.606   1.907   9.063
  923SOL    HW1 3690   1.635   1.873   8.978
  923SOL    HW2 3691   1.627   1.837   9.125
  923SOL     MW 3692   1.613   1.894   9.060
  924SOL     OW 3693   5.784   1.897   2.369
  924SOL    HW1 3694   5.708   1.841   2.351
  924SOL    HW2 3695   5.779   1.914   2.463
  924SOL     MW 3696   5.773   1.892   2.379
  925SOL     OW 3697   3.900   4.350   8.781
  925SOL    HW1 3698   3.815   4.372   8.819
  925SOL    HW2 3699   3.887   4.362   8.687
  925SOL     MW 3700   3.887   4.355   8.774
  926SOL     OW 3701   1.615   1.742   9.289
  926SOL    HW1 3702   1.534   1.793   9.293
  926SOL    HW2 3703   1.675   1.788   9.347
  926SOL     MW 3704   1.612   1.754   9.297
  927SOL     OW 3705   6.215   4.156   6.918
  927SOL    HW1 3706   6.183   4.109   6.842
  927SOL    HW2 3707   6.282   4.215   6.884
  927SOL     MW 3708   6.220   4.157   6.904
  928SOL     OW 3709   9.366   8.097   9.477
  928SOL    HW1 3710   9.442   8.075   9.532
  928SOL    HW2 3711   9.339   8.183   9.509
  928SOL     MW 3712   9.372   8.105   9.488
  929SOL     OW 3713   6.512   7.439   2.546
  929SOL    HW1 3714   6.602   7.409   2.561
  929SOL    HW2 3715   6.472   7.437   2.633
  929SOL     MW 3716   6.519   7.435   2.559
  930SOL     OW 3717   4.416   8.157   8.053
  930SOL    HW1 3718   4.441   8.250   8.049
  930SOL    HW2 3719   4.499   8.111   8.066
  930SOL     MW 3720   4.430   8.163   8.054
  931SOL     OW 3721   9.328   3.955   5.751
  931SOL    HW1 3722   9.392   3.983   5.686
  931SOL    HW2 3723   9.364   3.983   5.835
  931SOL     MW 3724   9.341   3.962   5.753
  932SOL     OW 3725   2.097   5.170   7.577
  932SOL    HW1 3726   2.022   5.115   7.555
  932SOL    HW2 3727   2.058   5.246   7.620
  932SOL     MW 3728   2.082   5.173   7.580
  933SOL     OW 3729   6.138   7.993   6.746
  933SOL    HW1 3730   6.230   7.971   6.763
  933SOL    HW2 3731   6.142   8.056   6.673
  933SOL     MW 3732   6.150   7.998   6.739
  934SOL     OW 3733   9.423   4.062   5.983
  934SOL    HW1 3734   9.464   4.137   5.939
  934SOL    HW2 3735   9.342   4.097   6.019
  934SOL     MW 3736   9.418   4.076   5.982
  935SOL     OW 3737   8.780   3.907   0.322
  935SOL    HW1 3738   8.799   3.950   0.239
  935SOL    HW2 3739   8.837   3.949   0.386
  935SOL     MW 3740   8.790   3.918   0.319
  936SOL     OW 3741   9.681   8.730   8.274
  936SOL    HW1 3742   9.754   8.756   8.330
  936SOL    HW2 3743   9.682   8.634   8.275
  936SOL     MW 3744   9.690   8.721   8.281
  937SOL     OW 3745   3.249   3.351   5.221
  937SOL    HW1 3746   3.275   3.443   5.214
  937SOL    HW2 3747   3.331   3.303   5.220
  937SOL     MW 3748   3.263   3.357   5.220
  938SOL     OW 3749   2.506   4.018   4.060
  938SOL    HW1 3750   2.572   3.957   4.028
  938SOL    HW2 3751   2.506   4.007   4.155
  938SOL     MW 3752   2.514   4.009   4.068
  939SOL     OW 3753   9.965   1.789   4.728
  939SOL    HW1 3754   9.977   1.878   4.696
  939SOL    HW2 3755  10.019   1.784   4.807
  939SOL     MW 3756   9.974   1.800   4.734
  940SOL     OW 3757   5.512   3.128   1.626
  940SOL    HW1 3758   5.504   3.054   1.686
  940SOL    HW2 3759   5.463   3.199   1.669
  940SOL     MW 3760   5.505   3.128   1.639
  941SOL     OW 3761   0.555   3.746   4.967
  941SOL    HW1 3762   0.545   3.732   4.873
  941SOL    HW2 3763   0.477   3.795   4.992
  941SOL     MW 3764   0.544   3.750   4.958
  942SOL     OW 3765   0.646   9.874   2.665
  942SOL    HW1 3766   0.736   9.887   2.697
  942SOL    HW2 3767   0.592   9.889   2.743
  942SOL     MW 3768   0.651   9.878   2.679
  943SOL     OW 3769   1.148   1.924   9.183
  943SOL    HW1 3770   1.095   1.952   9.259
  943SOL    HW2 3771   1.103   1.963   9.108
  943SOL     MW 3772   1.135   1.933   9.183
  944SOL     OW 3773   3.802   1.249   2.037
  944SOL    HW1 3774   3.812   1.281   2.127
  944SOL    HW2 3775   3.868   1.179   2.029
  944SOL     MW 3776   3.812   1.244   2.048
  945SOL     OW 3777   4.905   6.875   8.470
  945SOL    HW1 3778   4.873   6.955   8.430
  945SOL    HW2 3779   4.984   6.852   8.420
  945SOL     MW 3780   4.911   6.882   8.459
  946SOL     OW 3781   2.951   1.592   6.382
  946SOL    HW1 3782   2.920   1.502   6.390
  946SOL    HW2 3783   3.046   1.583   6.370
  946SOL     MW 3784   2.959   1.579   6.382
  947SOL     OW 3785   3.409   0.591   9.130
  947SOL    HW1 3786   3.476   0.532   9.097
  947SOL    HW2 3787   3.455   0.649   9.191
  947SOL     MW 3788   3.423   0.591   9.134
  948SOL     OW 3789   1.298   7.626   0.586
  948SOL    HW1 3790   1.363   7.693   0.563
  948SOL    HW2 3791   1.304   7.619   0.681
  948SOL     MW 3792   1.307   7.634   0.595
  949SOL     OW 3793   2.168   6.943   2.789
  949SOL    HW1 3794   2.180   7.028   2.746
  949SOL    HW2 3795   2.077   6.921   2.772
  949SOL     MW 3796   2.158   6.951   2.781
  950SOL     OW 3797   6.209   7.361   8.891
  950SOL    HW1 3798   6.155   7.338   8.815
  950SOL    HW2 3799   6.157   7.336   8.967
  950SOL     MW 3800   6.196   7.355   8.891
  951SOL     OW 3801  10.105   5.680   9.442
  951SOL    HW1 3802  10.121   5.597   9.489
  951SOL    HW2 3803  10.085   5.653   9.353
  951SOL     MW 3804  10.105   5.666   9.437
  952SOL     OW 3805   0.724   3.034   2.818
  952SOL    HW1 3806   0.712   3.122   2.852
  952SOL    HW2 3807   0.711   2.976   2.893
  952SOL     MW 3808   0.721   3.038   2.832
  953SOL     OW 3809   3.611   9.690   0.911
  953SOL    HW1 3810   3.644   9.626   0.848
  953SOL    HW2 3811   3.540   9.645   0.956
  953SOL     MW 3812   3.606   9.676   0.909
  954SOL     OW 3813   5.801   1.330   8.033
  954SOL    HW1 3814   5.812   1.353   7.941
  954SOL    HW2 3815   5.887   1.298   8.061
  954SOL     MW 3816   5.813   1.329   8.025
  955SOL     OW 3817   6.375   7.577  10.075
  955SOL    HW1 3818   6.461   7.564  10.035
  955SOL    HW2 3819   6.323   7.503  10.044
  955SOL     MW 3820   6.379   7.565  10.066
  956SOL     OW 3821   4.533   8.880   2.868
  956SOL    HW1 3822   4.610   8.920   2.827
  956SOL    HW2 3823   4.459   8.917   2.822
  956SOL     MW 3824   4.534   8.890   2.857
  957SOL     OW 3825   3.036   5.970   4.675
  957SOL    HW1 3826   2.967   5.907   4.654
  957SOL    HW2 3827   3.115   5.932   4.636
  957SOL     MW 3828   3.038   5.957   4.667
  958SOL     OW 3829   2.866   9.571   7.055
  958SOL    HW1 3830   2.918   9.548   7.132
  958SOL    HW2 3831   2.807   9.496   7.043
  958SOL     MW 3832   2.865   9.558   7.063
  959SOL     OW 3833   0.321   2.209   6.356
  959SOL    HW1 3834   0.384   2.203   6.284
  959SOL    HW2 3835   0.282   2.122   6.362
  959SOL     MW 3836   0.324   2.197   6.348
  960SOL     OW 3837   9.548   3.693   1.088
  960SOL    HW1 3838   9.514   3.607   1.113
  960SOL    HW2 3839   9.504   3.713   1.006
  960SOL     MW 3840   9.538   3.684   1.081
  961SOL     OW 3841   5.063   9.826   0.344
  961SOL    HW1 3842   5.153   9.823   0.374
  961SOL    HW2 3843   5.069   9.855   0.253
  961SOL     MW 3844   5.075   9.829   0.336
  962SOL     OW 3845   7.407   6.852   9.712
  962SOL    HW1 3846   7.371   6.938   9.733
  962SOL    HW2 3847   7.343   6.814   9.652
  962SOL     MW 3848   7.394   6.858   9.707
  963SOL     OW 3849   5.816   5.035   2.384
  963SOL    HW1 3850   5.775   5.030   2.297
  963SOL    HW2 3851   5.855   4.949   2.396
  963SOL     MW 3852   5.816   5.023   2.374
  964SOL     OW 3853   7.822   5.429   8.229
  964SOL    HW1 3854   7.907   5.467   8.251
  964SOL    HW2 3855   7.761   5.468   8.292
  964SOL     MW 3856   7.825   5.439   8.240
  965SOL     OW 3857   6.698   0.477   2.296
  965SOL    HW1 3858   6.631   0.475   2.227
  965SOL    HW2 3859   6.740   0.562   2.286
  965SOL     MW 3860   6.695   0.488   2.286
  966SOL     OW 3861   5.024   0.743   7.142
  966SOL    HW1 3862   4.984   0.798   7.210
  966SOL    HW2 3863   4.962   0.671   7.131
  966SOL     MW 3864   5.011   0.741   7.149
  967SOL     OW 3865   0.332   1.759   6.175
  967SOL    HW1 3866   0.377   1.676   6.154
  967SOL    HW2 3867   0.239   1.739   6.162
  967SOL     MW 3868   0.326   1.745   6.170
  968SOL     OW 3869   0.447   2.211   5.047
  968SOL    HW1 3870   0.529   2.162   5.050
  968SOL    HW2 3871   0.413   2.207   5.137
  968SOL     MW 3872   0.453   2.205   5.059
  969SOL     OW 3873   0.501   9.872   2.896
  969SOL    HW1 3874   0.513   9.778   2.882
  969SOL    HW2 3875   0.407   9.882   2.911
  969SOL     MW 3876   0.491   9.861   2.896
  970SOL     OW 3877   9.773   7.241   0.674
  970SOL    HW1 3878   9.800   7.228   0.765
  970SOL    HW2 3879   9.698   7.182   0.663
  970SOL     MW 3880   9.767   7.231   0.684
  971SOL     OW 3881   4.736   6.756   3.770
  971SOL    HW1 3882   4.659   6.710   3.803
  971SOL    HW2 3883   4.725   6.846   3.801
  971SOL     MW 3884   4.725   6.762   3.778
  972SOL     OW 3885   5.119   1.022   2.720
  972SOL    HW1 3886   5.032   0.991   2.743
  972SOL    HW2 3887   5.161   1.041   2.804
  972SOL     MW 3888   5.113   1.021   2.733
  973SOL     OW 3889   5.990   7.688   2.674
  973SOL    HW1 3890   5.992   7.774   2.717
  973SOL    HW2 3891   6.082   7.663   2.665
  973SOL     MW 3892   6.002   7.696   2.678
  974SOL     OW 3893   0.719   0.936   1.581
  974SOL    HW1 3894   0.710   1.031   1.576
  974SOL    HW2 3895   0.793   0.916   1.525
  974SOL     MW 3896   0.727   0.945   1.573
  975SOL     OW 3897   1.301   1.556   6.351
  975SOL    HW1 3898   1.256   1.509   6.281
  975SOL    HW2 3899   1.303   1.494   6.424
  975SOL     MW 3900   1.296   1.542   6.351
  976SOL     OW 3901   0.932   8.083   3.107
  976SOL    HW1 3902   0.904   8.013   3.167
  976SOL    HW2 3903   0.975   8.037   3.035
  976SOL     MW 3904   0.934   8.068   3.106
  977SOL     OW 3905   2.219   2.878   7.190
  977SOL    HW1 3906   2.235   2.949   7.128
  977SOL    HW2 3907   2.172   2.919   7.262
  977SOL     MW 3908   2.215   2.892   7.191
  978SOL     OW 3909   1.089   0.795   2.076
  978SOL    HW1 3910   1.089   0.890   2.059
  978SOL    HW2 3911   1.166   0.781   2.131
  978SOL     MW 3912   1.099   0.805   2.081
  979SOL     OW 3913   3.500   6.134   4.853
  979SOL    HW1 3914   3.554   6.213   4.843
  979SOL    HW2 3915   3.514   6.108   4.944
  979SOL     MW 3916   3.509   6.141   4.863
  980SOL     OW 3917   2.588   7.159   7.374
  980SOL    HW1 3918   2.502   7.201   7.377
  980SOL    HW2 3919   2.576   7.085   7.314
  980SOL     MW 3920   2.575   7.155   7.367
  981SOL     OW 3921   7.110   6.429   2.038
  981SOL    HW1 3922   7.167   6.444   1.963
  981SOL    HW2 3923   7.092   6.516   2.072
  981SOL     MW 3924   7.115   6.442   2.033
  982SOL     OW 3925   8.141   0.111   0.390
  982SOL    HW1 3926   8.217   0.169   0.384
  982SOL    HW2 3927   8.157   0.059   0.469
  982SOL     MW 3928   8.153   0.111   0.399
  983SOL     OW 3929   5.559   3.297   5.541
  983SOL    HW1 3930   5.570   3.353   5.464
  983SOL    HW2 3931   5.518   3.217   5.508
  983SOL     MW 3932   5.555   3.294   5.527
  984SOL     OW 3933   2.881   6.610   1.438
  984SOL    HW1 3934   2.815   6.584   1.502
  984SOL    HW2 3935   2.923   6.528   1.411
  984SOL     MW 3936   2.878   6.596   1.443
  985SOL     OW 3937   1.161   0.035   0.358
  985SOL    HW1 3938   1.085   0.015   0.412
  985SOL    HW2 3939   1.128   0.031   0.268
  985SOL     MW 3940   1.147   0.032   0.353
  986SOL     OW 3941   3.389   4.692   0.169
  986SOL    HW1 3942   3.365   4.613   0.121
  986SOL    HW2 3943   3.350   4.764   0.118
  986SOL     MW 3944   3.381   4.691   0.156
  987SOL     OW 3945   7.594   3.732   4.804
  987SOL    HW1 3946   7.648   3.810   4.793
  987SOL    HW2 3947   7.584   3.723   4.899
  987SOL     MW 3948   7.599   3.741   4.815
  988SOL     OW 3949   8.815   0.540   9.073
  988SOL    HW1 3950   8.828   0.605   9.142
  988SOL    HW2 3951   8.903   0.522   9.040
  988SOL     MW 3952   8.828   0.546   9.078
  989SOL     OW 3953   5.037   0.915   4.358
  989SOL    HW1 3954   5.067   0.987   4.302
  989SOL    HW2 3955   4.943   0.933   4.370
  989SOL     MW 3956   5.029   0.927   4.352
  990SOL     OW 3957   2.757   7.972   4.146
  990SOL    HW1 3958   2.842   7.932   4.163
  990SOL    HW2 3959   2.754   8.048   4.205
  990SOL     MW 3960   2.767   7.976   4.156
  991SOL     OW 3961   5.039   0.629   8.291
  991SOL    HW1 3962   4.967   0.593   8.342
  991SOL    HW2 3963   5.027   0.592   8.203
  991SOL     MW 3964   5.028   0.620   8.286
  992SOL     OW 3965   2.104   8.576   4.176
  992SOL    HW1 3966   2.168   8.573   4.105
  992SOL    HW2 3967   2.058   8.492   4.170
  992SOL     MW 3968   2.107   8.565   4.166
  993SOL     OW 3969   3.227   6.371   9.034
  993SOL    HW1 3970   3.283   6.298   9.060
  993SOL    HW2 3971   3.289   6.441   9.012
  993SOL     MW 3972   3.242   6.371   9.034
  994SOL     OW 3973   7.357   6.648   7.587
  994SOL    HW1 3974   7.423   6.703   7.629
  994SOL    HW2 3975   7.385   6.558   7.608
  994SOL     MW 3976   7.369   6.643   7.595
  995SOL     OW 3977   1.092   6.815   9.584
  995SOL    HW1 3978   1.076   6.874   9.658
  995SOL    HW2 3979   1.144   6.868   9.523
  995SOL     MW 3980   1.097   6.830   9.586
  996SOL     OW 3981   6.840  -0.020   6.826
  996SOL    HW1 3982   6.767  -0.027   6.765
  996SOL    HW2 3983   6.874   0.069   6.813
  996SOL     MW 3984   6.835  -0.009   6.817
  997SOL     OW 3985   0.231   8.351   6.099
  997SOL    HW1 3986   0.310   8.404   6.088
  997SOL    HW2 3987   0.175   8.376   6.025
  997SOL     MW 3988   0.234   8.361   6.088
  998SOL     OW 3989   9.232   3.687   3.378
  998SOL    HW1 3990   9.314   3.703   3.331
  998SOL    HW2 3991   9.253   3.709   3.469
  998SOL     MW 3992   9.245   3.692   3.384
  999SOL     OW 3993   7.970   8.900   2.397
  999SOL    HW1 3994   7.986   8.966   2.329
  999SOL    HW2 3995   7.880   8.916   2.425
  999SOL     MW 3996   7.961   8.911   2.392
 1000SOL     OW 3997   7.152   6.918   4.959
 1000SOL    HW1 3998   7.119   6.845   5.012
 1000SOL    HW2 3999   7.242   6.893   4.938
 1000SOL     MW 4000   7.159   6.905   4.963
 1001SOL     OW 4001   4.494   0.182   6.369
 1001SOL    HW1 4002   4.434   0.237   6.318
 1001SOL    HW2 4003   4.440   0.108   6.397
 1001SOL     MW 4004   4.480   0.179   6.366
 1002SOL     OW 4005   1.698   7.424   2.329
 1002SOL    HW1 4006   1.604   7.411   2.330
 1002SOL    HW2 4007   1.710   7.519   2.330
 1002SOL     MW 4008   1.688   7.435   2.330
 1003SOL     OW 4009   4.424   7.370   2.647
 1003SOL    HW1 4010   4.501   7.330   2.688
 1003SOL    HW2 4011   4.459   7.411   2.567
 1003SOL     MW 4012   4.439   7.370   2.642
 1004SOL     OW 4013   3.634   8.629   2.211
 1004SOL    HW1 4014   3.721   8.591   2.199
 1004SOL    HW2 4015   3.639   8.714   2.167
 1004SOL     MW 4016   3.646   8.635   2.204
 1005SOL     OW 4017   2.276   8.577   3.964
 1005SOL    HW1 4018   2.271   8.665   3.927
 1005SOL    HW2 4019   2.369   8.560   3.975
 1005SOL     MW 4020   2.287   8.586   3.961
 1006SOL     OW 4021   1.138   7.869   9.720
 1006SOL    HW1 4022   1.152   7.793   9.664
 1006SOL    HW2 4023   1.206   7.862   9.787
 1006SOL     MW 4024   1.149   7.858   9.721
 1007SOL     OW 4025   7.995   2.147   7.252
 1007SOL    HW1 4026   7.959   2.101   7.328
 1007SOL    HW2 4027   7.921   2.152   7.190
 1007SOL     MW 4028   7.981   2.142   7.254
 1008SOL     OW 4029  10.122   8.404   3.578
 1008SOL    HW1 4030  10.081   8.318   3.577
 1008SOL    HW2 4031  10.064   8.458   3.633
 1008SOL     MW 4032  10.109   8.400   3.585
 1009SOL     OW 4033   9.006   2.773   1.090
 1009SOL    HW1 4034   8.962   2.692   1.115
 1009SOL    HW2 4035   9.009   2.771   0.995
 1009SOL     MW 4036   9.001   2.762   1.081
 1010SOL     OW 4037   2.544   8.542   3.955
 1010SOL    HW1 4038   2.555   8.479   3.884
 1010SOL    HW2 4039   2.560   8.627   3.914
 1010SOL     MW 4040   2.548   8.545   3.941
 1011SOL     OW 4041   6.189   9.769   3.185
 1011SOL    HW1 4042   6.187   9.840   3.249
 1011SOL    HW2 4043   6.142   9.697   3.227
 1011SOL     MW 4044   6.183   9.769   3.198
 1012SOL     OW 4045   7.659   0.965   9.712
 1012SOL    HW1 4046   7.658   0.935   9.621
 1012SOL    HW2 4047   7.713   0.900   9.758
 1012SOL     MW 4048   7.666   0.953   9.706
 1013SOL     OW 4049   9.727   8.082   1.625
 1013SOL    HW1 4050   9.713   8.174   1.649
 1013SOL    HW2 4051   9.648   8.058   1.578
 1013SOL     MW 4052   9.715   8.091   1.622
 1014SOL     OW 4053   6.036   2.286   4.374
 1014SOL    HW1 4054   5.956   2.324   4.339
 1014SOL    HW2 4055   6.072   2.353   4.432
 1014SOL     MW 4056   6.031   2.299   4.377
 1015SOL     OW 4057   8.905   1.302   8.998
 1015SOL    HW1 4058   8.996   1.331   8.995
 1015SOL    HW2 4059   8.886   1.273   8.908
 1015SOL     MW 4060   8.914   1.302   8.986
 1016SOL     OW 4061   8.582   6.306   2.042
 1016SOL    HW1 4062   8.621   6.351   2.116
 1016SOL    HW2 4063   8.656   6.272   1.992
 1016SOL     MW 4064   8.596   6.308   2.045
 1017SOL     OW 4065   7.961   4.646   4.816
 1017SOL    HW1 4066   7.994   4.728   4.852
 1017SOL    HW2 4067   8.031   4.583   4.831
 1017SOL     MW 4068   7.974   4.648   4.823
 1018SOL     OW 4069   7.773   4.644   4.619
 1018SOL    HW1 4070   7.819   4.681   4.543
 1018SOL    HW2 4071   7.838   4.645   4.689
 1018SOL     MW 4072   7.787   4.649   4.618
 1019SOL     OW 4073   5.105   2.197   4.179
 1019SOL    HW1 4074   5.095   2.220   4.087
 1019SOL    HW2 4075   5.198   2.180   4.190
 1019SOL     MW 4076   5.115   2.198   4.169
 1020SOL     OW 4077   8.108   4.567   3.343
 1020SOL    HW1 4078   8.093   4.600   3.432
 1020SOL    HW2 4079   8.105   4.472   3.352
 1020SOL     MW 4080   8.106   4.559   3.356
 1021SOL     OW 4081   1.861   7.657   5.943
 1021SOL    HW1 4082   1.937   7.708   5.970
 1021SOL    HW2 4083   1.892   7.567   5.941
 1021SOL     MW 4084   1.874   7.652   5.946
 1022SOL     OW 4085   5.491   9.133   7.319
 1022SOL    HW1 4086   5.551   9.191   7.365
 1022SOL    HW2 4087   5.529   9.046   7.326
 1022SOL     MW 4088   5.503   9.129   7.326
 1023SOL     OW 4089   2.276   8.673   5.267
 1023SOL    HW1 4090   2.239   8.635   5.347
 1023SOL    HW2 4091   2.207   8.662   5.201
 1023SOL     MW 4092   2.262   8.667   5.269
 1024SOL     OW 4093   6.563   8.296   6.069
 1024SOL    HW1 4094   6.593   8.387   6.059
 1024SOL    HW2 4095   6.477   8.295   6.027
 1024SOL     MW 4096   6.556   8.308   6.062
 1025SOL     OW 4097   6.533   0.465   5.387
 1025SOL    HW1 4098   6.606   0.473   5.447
 1025SOL    HW2 4099   6.460   0.434   5.441
 1025SOL     MW 4100   6.533   0.462   5.402
 1026SOL     OW 4101   7.370   7.914   7.317
 1026SOL    HW1 4102   7.311   7.982   7.285
 1026SOL    HW2 4103   7.458   7.944   7.293
 1026SOL     MW 4104   7.374   7.927   7.310
 1027SOL     OW 4105   3.099   5.808   0.120
 1027SOL    HW1 4106   3.085   5.733   0.061
 1027SOL    HW2 4107   3.111   5.768   0.206
 1027SOL     MW 4108   3.099   5.793   0.123
 1028SOL     OW 4109   6.388   7.455   2.792
 1028SOL    HW1 4110   6.322   7.385   2.800
 1028SOL    HW2 4111   6.427   7.460   2.879
 1028SOL     MW 4112   6.385   7.447   2.804
 1029SOL     OW 4113   0.308   7.349   2.308
 1029SOL    HW1 4114   0.375   7.400   2.354
 1029SOL    HW2 4115   0.247   7.321   2.377
 1029SOL     MW 4116   0.309   7.352   2.323
 1030SOL     OW 4117   6.318   8.026   5.857
 1030SOL    HW1 4118   6.410   8.002   5.844
 1030SOL    HW2 4119   6.276   8.003   5.774
 1030SOL     MW 4120   6.325   8.020   5.844
 1031SOL     OW 4121   3.479   9.013   6.356
 1031SOL    HW1 4122   3.440   9.055   6.433
 1031SOL    HW2 4123   3.531   9.083   6.315
 1031SOL     MW 4124   3.480   9.027   6.361
 1032SOL     OW 4125   5.746   1.505   6.732
 1032SOL    HW1 4126   5.827   1.473   6.771
 1032SOL    HW2 4127   5.773   1.540   6.647
 1032SOL     MW 4128   5.760   1.506   6.726
 1033SOL     OW 4129   4.608   7.968   6.437
 1033SOL    HW1 4130   4.646   7.957   6.349
 1033SOL    HW2 4131   4.681   8.002   6.489
 1033SOL     MW 4132   4.622   7.971   6.432
 1034SOL     OW 4133   2.120   2.283   1.137
 1034SOL    HW1 4134   2.053   2.217   1.156
 1034SOL    HW2 4135   2.073   2.367   1.143
 1034SOL     MW 4136   2.105   2.286   1.140
 1035SOL     OW 4137   5.365   3.496   7.890
 1035SOL    HW1 4138   5.359   3.592   7.887
 1035SOL    HW2 4139   5.287   3.469   7.939
 1035SOL     MW 4140   5.354   3.505   7.896
 1036SOL     OW 4141   9.103   7.983   2.318
 1036SOL    HW1 4142   9.187   7.973   2.275
 1036SOL    HW2 4143   9.085   8.077   2.315
 1036SOL     MW 4144   9.111   7.994   2.312
 1037SOL     OW 4145   1.876   9.857   2.954
 1037SOL    HW1 4146   1.965   9.870   2.921
 1037SOL    HW2 4147   1.868   9.921   3.025
 1037SOL     MW 4148   1.886   9.867   2.959
 1038SOL     OW 4149   5.482   1.152   0.729
 1038SOL    HW1 4150   5.477   1.083   0.663
 1038SOL    HW2 4151   5.433   1.117   0.804
 1038SOL     MW 4152   5.475   1.139   0.730
 1039SOL     OW 4153   5.033   5.090   8.261
 1039SOL    HW1 4154   5.106   5.126   8.210
 1039SOL    HW2 4155   5.030   4.997   8.238
 1039SOL     MW 4156   5.042   5.083   8.251
 1040SOL     OW 4157   7.369   7.102   9.443
 1040SOL    HW1 4158   7.434   7.034   9.460
 1040SOL    HW2 4159   7.420   7.177   9.414
 1040SOL     MW 4160   7.383   7.103   9.442
 1041SOL     OW 4161   3.489   6.092   8.019
 1041SOL    HW1 4162   3.542   6.016   7.995
 1041SOL    HW2 4163   3.551   6.164   8.027
 1041SOL     MW 4164   3.504   6.092   8.017
 1042SOL     OW 4165   7.594   5.674   2.254
 1042SOL    HW1 4166   7.645   5.610   2.304
 1042SOL    HW2 4167   7.515   5.627   2.228
 1042SOL     MW 4168   7.591   5.660   2.257
 1043SOL     OW 4169   9.999   3.309   2.439
 1043SOL    HW1 4170   9.942   3.374   2.397
 1043SOL    HW2 4171  10.065   3.362   2.485
 1043SOL     MW 4172  10.000   3.324   2.439
 1044SOL     OW 4173   5.001   9.903   7.284
 1044SOL    HW1 4174   4.967   9.864   7.204
 1044SOL    HW2 4175   5.090   9.930   7.261
 1044SOL     MW 4176   5.008   9.901   7.271
 1045SOL     OW 4177   5.339   0.565   4.213
 1045SOL    HW1 4178   5.313   0.654   4.237
 1045SOL    HW2 4179   5.267   0.510   4.244
 1045SOL     MW 4180   5.326   0.569   4.220
 1046SOL     OW 4181   5.502   4.148   0.693
 1046SOL    HW1 4182   5.442   4.148   0.618
 1046SOL    HW2 4183   5.562   4.075   0.676
 1046SOL     MW 4184   5.502   4.139   0.681
 1047SOL     OW 4185   6.816   5.664   6.843
 1047SOL    HW1 4186   6.863   5.622   6.770
 1047SOL    HW2 4187   6.732   5.690   6.805
 1047SOL     MW 4188   6.812   5.662   6.828
 1048SOL     OW 4189   3.855   0.705   3.984
 1048SOL    HW1 4190   3.919   0.701   4.055
 1048SOL    HW2 4191   3.820   0.616   3.977
 1048SOL     MW 4192   3.859   0.693   3.992
 1049SOL     OW 4193   4.409   6.938   6.351
 1049SOL    HW1 4194   4.499   6.946   6.321
 1049SOL    HW2 4195   4.397   6.844   6.366
 1049SOL     MW 4196   4.419   6.927   6.349
 1050SOL     OW 4197   5.118   3.202   3.447
 1050SOL    HW1 4198   5.152   3.113   3.460
 1050SOL    HW2 4199   5.048   3.211   3.512
 1050SOL     MW 4200   5.114   3.192   3.457
 1051SOL     OW 4201   5.864   4.640   9.015
 1051SOL    HW1 4202   5.788   4.676   9.061
 1051SOL    HW2 4203   5.848   4.660   8.923
 1051SOL     MW 4204   5.852   4.647   9.009
 1052SOL     OW 4205   0.012   4.709   7.675
 1052SOL    HW1 4206   0.068   4.646   7.722
 1052SOL    HW2 4207   0.074   4.762   7.624
 1052SOL     MW 4208   0.027   4.708   7.675
 1053SOL     OW 4209   1.971   5.429   9.287
 1053SOL    HW1 4210   1.935   5.362   9.228
 1053SOL    HW2 4211   2.009   5.494   9.229
 1053SOL     MW 4212   1.972   5.429   9.272
 1054SOL     OW 4213   6.648   3.480   6.599
 1054SOL    HW1 4214   6.729   3.470   6.548
 1054SOL    HW2 4215   6.581   3.438   6.545
 1054SOL     MW 4216   6.649   3.473   6.585
 1055SOL     OW 4217   9.268   8.335   9.577
 1055SOL    HW1 4218   9.256   8.362   9.668
 1055SOL    HW2 4219   9.283   8.416   9.529
 1055SOL     MW 4220   9.269   8.349   9.583
 1056SOL     OW 4221   2.693   6.501   8.076
 1056SOL    HW1 4222   2.664   6.551   8.152
 1056SOL    HW2 4223   2.638   6.423   8.075
 1056SOL     MW 4224   2.682   6.498   8.086
 1057SOL     OW 4225   5.155   5.921   8.736
 1057SOL    HW1 4226   5.216   5.893   8.668
 1057SOL    HW2 4227   5.156   5.850   8.800
 1057SOL     MW 4228   5.163   5.909   8.736
 1058SOL     OW 4229   6.309   0.371   7.875
 1058SOL    HW1 4230   6.354   0.401   7.954
 1058SOL    HW2 4231   6.339   0.431   7.806
 1058SOL     MW 4232   6.318   0.383   7.876
 1059SOL     OW 4233   1.918   1.494   3.275
 1059SOL    HW1 4234   1.934   1.577   3.231
 1059SOL    HW2 4235   1.994   1.480   3.331
 1059SOL     MW 4236   1.929   1.502   3.277
 1060SOL     OW 4237   2.015   5.751   2.837
 1060SOL    HW1 4238   1.975   5.670   2.869
 1060SOL    HW2 4239   2.101   5.724   2.805
 1060SOL     MW 4240   2.021   5.737   2.837
 1061SOL     OW 4241   2.571   9.774   6.539
 1061SOL    HW1 4242   2.641   9.713   6.518
 1061SOL    HW2 4243   2.607   9.860   6.518
 1061SOL     MW 4244   2.584   9.778   6.534
 1062SOL     OW 4245   3.543   0.855   6.718
 1062SOL    HW1 4246   3.505   0.828   6.634
 1062SOL    HW2 4247   3.483   0.821   6.784
 1062SOL     MW 4248   3.531   0.847   6.716
 1063SOL     OW 4249   7.619   3.149   3.593
 1063SOL    HW1 4250   7.575   3.129   3.511
 1063SOL    HW2 4251   7.551   3.186   3.649
 1063SOL     MW 4252   7.605   3.151   3.590
 1064SOL     OW 4253   9.884   8.994   0.652
 1064SOL    HW1 4254   9.907   8.969   0.562
 1064SOL    HW2 4255   9.796   8.959   0.665
 1064SOL     MW 4256   9.876   8.986   0.642
 1065SOL     OW 4257   1.854   3.063   3.035
 1065SOL    HW1 4258   1.853   3.002   2.961
 1065SOL    HW2 4259   1.846   3.007   3.112
 1065SOL     MW 4260   1.853   3.048   3.035
 1066SOL     OW 4261   8.896   2.394   9.670
 1066SOL    HW1 4262   8.929   2.400   9.580
 1066SOL    HW2 4263   8.950   2.456   9.719
 1066SOL     MW 4264   8.907   2.402   9.665
 1067SOL     OW 4265   3.999   7.761   5.470
 1067SOL    HW1 4266   3.905   7.768   5.454
 1067SOL    HW2 4267   4.038   7.767   5.383
 1067SOL     MW 4268   3.992   7.763   5.457
 1068SOL     OW 4269   2.931   9.173   4.152
 1068SOL    HW1 4270   2.871   9.116   4.105
 1068SOL    HW2 4271   2.890   9.259   4.149
 1068SOL     MW 4272   2.918   9.177   4.145
 1069SOL     OW 4273   5.428   4.698   6.216
 1069SOL    HW1 4274   5.379   4.617   6.231
 1069SOL    HW2 4275   5.388   4.736   6.137
 1069SOL     MW 4276   5.416   4.693   6.208
 1070SOL     OW 4277   1.962   6.515   4.480
 1070SOL    HW1 4278   2.034   6.452   4.488
 1070SOL    HW2 4279   1.885   6.461   4.463
 1070SOL     MW 4280   1.961   6.500   4.479
 1071SOL     OW 4281   1.901   3.538   4.209
 1071SOL    HW1 4282   1.890   3.450   4.244
 1071SOL    HW2 4283   1.840   3.592   4.260
 1071SOL     MW 4284   1.892   3.534   4.220
 1072SOL     OW 4285   7.325   6.376   7.214
 1072SOL    HW1 4286   7.400   6.399   7.159
 1072SOL    HW2 4287   7.293   6.460   7.247
 1072SOL     MW 4288   7.331   6.389   7.211
 1073SOL     OW 4289   3.133   2.959   7.770
 1073SOL    HW1 4290   3.088   3.028   7.723
 1073SOL    HW2 4291   3.075   2.883   7.763
 1073SOL     MW 4292   3.120   2.958   7.763
 1074SOL     OW 4293   2.113   0.832   4.924
 1074SOL    HW1 4294   2.030   0.821   4.972
 1074SOL    HW2 4295   2.150   0.913   4.960
 1074SOL     MW 4296   2.107   0.841   4.935
 1075SOL     OW 4297   2.987   6.363   1.373
 1075SOL    HW1 4298   2.978   6.318   1.289
 1075SOL    HW2 4299   3.043   6.305   1.425
 1075SOL     MW 4300   2.993   6.350   1.369
 1076SOL     OW 4301   2.710   1.399   2.396
 1076SOL    HW1 4302   2.725   1.305   2.404
 1076SOL    HW2 4303   2.797   1.436   2.379
 1076SOL     MW 4304   2.723   1.392   2.395
 1077SOL     OW 4305   5.958   7.918   5.486
 1077SOL    HW1 4306   6.024   7.944   5.550
 1077SOL    HW2 4307   5.890   7.985   5.495
 1077SOL     MW 4308   5.958   7.930   5.496
 1078SOL     OW 4309   6.327   0.118   2.029
 1078SOL    HW1 4310   6.374   0.046   2.073
 1078SOL    HW2 4311   6.250   0.076   1.990
 1078SOL     MW 4312   6.323   0.103   2.030
 1079SOL     OW 4313   7.767   5.325   0.411
 1079SOL    HW1 4314   7.715   5.405   0.413
 1079SOL    HW2 4315   7.779   5.302   0.503
 1079SOL     MW 4316   7.762   5.332   0.423
 1080SOL     OW 4317   1.137  10.156   7.364
 1080SOL    HW1 4318   1.151  10.220   7.434
 1080SOL    HW2 4319   1.208  10.094   7.374
 1080SOL     MW 4320   1.148  10.156   7.374
 1081SOL     OW 4321   4.446   4.869   3.799
 1081SOL    HW1 4322   4.494   4.865   3.717
 1081SOL    HW2 4323   4.355   4.853   3.775
 1081SOL     MW 4324   4.441   4.867   3.786
 1082SOL     OW 4325   3.445   2.339   3.878
 1082SOL    HW1 4326   3.373   2.328   3.816
 1082SOL    HW2 4327   3.518   2.370   3.825
 1082SOL     MW 4328   3.445   2.341   3.863
 1083SOL     OW 4329   2.979  10.134   0.812
 1083SOL    HW1 4330   2.967  10.062   0.749
 1083SOL    HW2 4331   2.906  10.193   0.795
 1083SOL     MW 4332   2.968  10.132   0.802
 1084SOL     OW 4333   1.655   1.276   6.772
 1084SOL    HW1 4334   1.681   1.354   6.822
 1084SOL    HW2 4335   1.601   1.310   6.701
 1084SOL     MW 4336   1.652   1.291   6.770
 1085SOL     OW 4337   5.700   2.343   6.706
 1085SOL    HW1 4338   5.633   2.319   6.642
 1085SOL    HW2 4339   5.762   2.396   6.657
 1085SOL     MW 4340   5.699   2.347   6.692
 1086SOL     OW 4341   1.665   0.801   0.507
 1086SOL    HW1 4342   1.718   0.812   0.429
 1086SOL    HW2 4343   1.617   0.883   0.516
 1086SOL     MW 4344   1.665   0.813   0.498
 1087SOL     OW 4345   0.968   1.515   0.215
 1087SOL    HW1 4346   0.994   1.595   0.169
 1087SOL    HW2 4347   0.902   1.475   0.159
 1087SOL     MW 4348   0.963   1.520   0.202
 1088SOL     OW 4349   3.133  10.078   1.270
 1088SOL    HW1 4350   3.059  10.043   1.319
 1088SOL    HW2 4351   3.094  10.121   1.194
 1088SOL     MW 4352   3.119  10.079   1.266
 1089SOL     OW 4353   7.386   6.096   6.256
 1089SOL    HW1 4354   7.335   6.015   6.260
 1089SOL    HW2 4355   7.461   6.079   6.314
 1089SOL     MW 4356   7.389   6.083   6.264
 1090SOL     OW 4357   1.637   5.013   4.524
 1090SOL    HW1 4358   1.689   4.938   4.496
 1090SOL    HW2 4359   1.583   5.034   4.447
 1090SOL     MW 4360   1.636   5.006   4.510
 1091SOL     OW 4361   5.539   4.555   8.226
 1091SOL    HW1 4362   5.585   4.560   8.309
 1091SOL    HW2 4363   5.479   4.480   8.236
 1091SOL     MW 4364   5.537   4.546   8.238
 1092SOL     OW 4365   5.879   5.640   2.891
 1092SOL    HW1 4366   5.927   5.581   2.833
 1092SOL    HW2 4367   5.945   5.702   2.922
 1092SOL     MW 4368   5.894   5.641   2.888
 1093SOL     OW 4369   9.217   4.898   0.350
 1093SOL    HW1 4370   9.212   4.918   0.444
 1093SOL    HW2 4371   9.131   4.923   0.316
 1093SOL     MW 4372   9.205   4.904   0.358
 1094SOL     OW 4373   8.104   3.355   8.009
 1094SOL    HW1 4374   8.170   3.314   7.952
 1094SOL    HW2 4375   8.116   3.311   8.094
 1094SOL     MW 4376   8.114   3.344   8.013
 1095SOL     OW 4377   2.365   5.954   7.167
 1095SOL    HW1 4378   2.422   5.964   7.090
 1095SOL    HW2 4379   2.415   5.992   7.239
 1095SOL     MW 4380   2.379   5.960   7.166
 1096SOL     OW 4381   0.598   5.252   8.355
 1096SOL    HW1 4382   0.693   5.251   8.344
 1096SOL    HW2 4383   0.581   5.190   8.426
 1096SOL     MW 4384   0.608   5.244   8.363
 1097SOL     OW 4385   2.597   0.938   3.363
 1097SOL    HW1 4386   2.575   0.854   3.323
 1097SOL    HW2 4387   2.644   0.985   3.294
 1097SOL     MW 4388   2.600   0.933   3.349
 1098SOL     OW 4389   9.092   3.189   0.361
 1098SOL    HW1 4390   9.158   3.224   0.301
 1098SOL    HW2 4391   9.142   3.155   0.435
 1098SOL     MW 4392   9.107   3.189   0.363
 1099SOL     OW 4393   9.972   5.130   5.176
 1099SOL    HW1 4394   9.905   5.145   5.242
 1099SOL    HW2 4395   9.999   5.218   5.150
 1099SOL     MW 4396   9.967   5.143   5.181
 1100SOL     OW 4397   5.236   5.172   3.675
 1100SOL    HW1 4398   5.273   5.084   3.667
 1100SOL    HW2 4399   5.160   5.161   3.731
 1100SOL     MW 4400   5.231   5.159   3.681
 1101SOL     OW 4401   4.093   4.419   0.569
 1101SOL    HW1 4402   4.172   4.379   0.533
 1101SOL    HW2 4403   4.050   4.348   0.618
 1101SOL     MW 4404   4.097   4.405   0.571
 1102SOL     OW 4405   9.903   7.141   0.453
 1102SOL    HW1 4406   9.837   7.074   0.437
 1102SOL    HW2 4407   9.869   7.191   0.528
 1102SOL     MW 4408   9.890   7.139   0.461
 1103SOL     OW 4409   0.912   6.004   1.822
 1103SOL    HW1 4410   0.921   5.910   1.839
 1103SOL    HW2 4411   0.948   6.046   1.900
 1103SOL     MW 4412   0.917   5.998   1.834
 1104SOL     OW 4413   8.377   9.455   6.016
 1104SOL    HW1 4414   8.422   9.534   5.984
 1104SOL    HW2 4415   8.302   9.488   6.065
 1104SOL     MW 4416   8.373   9.469   6.018
 1105SOL     OW 4417   3.181   3.613   4.791
 1105SOL    HW1 4418   3.112   3.567   4.744
 1105SOL    HW2 4419   3.203   3.555   4.864
 1105SOL     MW 4420   3.175   3.599   4.795
 1106SOL     OW 4421   2.633   0.438   1.906
 1106SOL    HW1 4422   2.704   0.459   1.967
 1106SOL    HW2 4423   2.676   0.438   1.820
 1106SOL     MW 4424   2.648   0.441   1.903
 1107SOL     OW 4425   8.467   7.398   0.396
 1107SOL    HW1 4426   8.467   7.304   0.377
 1107SOL    HW2 4427   8.558   7.418   0.417
 1107SOL     MW 4428   8.479   7.389   0.397
 1108SOL     OW 4429   9.550   7.492   9.461
 1108SOL    HW1 4430   9.572   7.399   9.468
 1108SOL    HW2 4431   9.602   7.535   9.528
 1108SOL     MW 4432   9.559   7.486   9.470
 1109SOL     OW 4433   3.950   5.257   0.193
 1109SOL    HW1 4434   3.969   5.279   0.102
 1109SOL    HW2 4435   3.953   5.161   0.195
 1109SOL     MW 4436   3.953   5.247   0.181
 1110SOL     OW 4437   5.708   1.571   3.170
 1110SOL    HW1 4438   5.796   1.536   3.184
 1110SOL    HW2 4439   5.682   1.608   3.254
 1110SOL     MW 4440   5.716   1.571   3.182
 1111SOL     OW 4441   1.278   9.215   6.996
 1111SOL    HW1 4442   1.209   9.274   6.966
 1111SOL    HW2 4443   1.239   9.128   6.990
 1111SOL     MW 4444   1.264   9.211   6.992
 1112SOL     OW 4445   3.211   9.578   2.083
 1112SOL    HW1 4446   3.299   9.609   2.064
 1112SOL    HW2 4447   3.198   9.599   2.176
 1112SOL     MW 4448   3.220   9.585   2.093
 1113SOL     OW 4449   2.157   5.159   2.965
 1113SOL    HW1 4450   2.069   5.154   3.002
 1113SOL    HW2 4451   2.156   5.096   2.893
 1113SOL     MW 4452   2.146   5.150   2.961
 1114SOL     OW 4453   4.480   4.529   4.979
 1114SOL    HW1 4454   4.487   4.437   4.954
 1114SOL    HW2 4455   4.399   4.559   4.937
 1114SOL     MW 4456   4.470   4.521   4.971
 1115SOL     OW 4457   5.057   7.715   5.679
 1115SOL    HW1 4458   5.113   7.787   5.652
 1115SOL    HW2 4459   5.036   7.668   5.598
 1115SOL     MW 4460   5.061   7.718   5.665
 1116SOL     OW 4461   6.841   9.482   4.483
 1116SOL    HW1 4462   6.840   9.577   4.499
 1116SOL    HW2 4463   6.892   9.446   4.555
 1116SOL     MW 4464   6.848   9.490   4.494
 1117SOL     OW 4465   9.844   3.507   2.321
 1117SOL    HW1 4466   9.760   3.492   2.279
 1117SOL    HW2 4467   9.824   3.562   2.397
 1117SOL     MW 4468   9.831   3.512   2.325
 1118SOL     OW 4469   3.023   0.240   9.777
 1118SOL    HW1 4470   3.075   0.304   9.729
 1118SOL    HW2 4471   3.003   0.284   9.860
 1118SOL     MW 4472   3.027   0.254   9.782
 1119SOL     OW 4473   5.261   5.173   8.125
 1119SOL    HW1 4474   5.293   5.261   8.144
 1119SOL    HW2 4475   5.267   5.165   8.030
 1119SOL     MW 4476   5.266   5.183   8.115
 1120SOL     OW 4477   3.566   5.349   1.570
 1120SOL    HW1 4478   3.616   5.285   1.520
 1120SOL    HW2 4479   3.584   5.328   1.662
 1120SOL     MW 4480   3.575   5.338   1.575
 1121SOL     OW 4481   1.114   6.693   5.704
 1121SOL    HW1 4482   1.155   6.641   5.635
 1121SOL    HW2 4483   1.037   6.643   5.730
 1121SOL     MW 4484   1.110   6.680   5.699
 1122SOL     OW 4485   7.863   9.480   6.196
 1122SOL    HW1 4486   7.816   9.501   6.276
 1122SOL    HW2 4487   7.805   9.509   6.125
 1122SOL     MW 4488   7.850   9.487   6.197
 1123SOL     OW 4489   3.740   6.417   3.394
 1123SOL    HW1 4490   3.719   6.330   3.427
 1123SOL    HW2 4491   3.781   6.462   3.468
 1123SOL     MW 4492   3.742   6.412   3.408
 1124SOL     OW 4493   2.952   1.226   8.265
 1124SOL    HW1 4494   2.859   1.206   8.254
 1124SOL    HW2 4495   2.959   1.260   8.354
 1124SOL     MW 4496   2.941   1.228   8.275
 1125SOL     OW 4497   6.022   4.793   1.852
 1125SOL    HW1 4498   6.034   4.705   1.815
 1125SOL    HW2 4499   5.927   4.802   1.860
 1125SOL     MW 4500   6.011   4.783   1.848
 1126SOL     OW 4501   2.480   7.959   9.625
 1126SOL    HW1 4502   2.504   8.044   9.663
 1126SOL    HW2 4503   2.407   7.980   9.566
 1126SOL     MW 4504   2.473   7.973   9.622
 1127SOL     OW 4505   2.346   5.948   2.676
 1127SOL    HW1 4506   2.429   5.994   2.667
 1127SOL    HW2 4507   2.280   6.017   2.677
 1127SOL     MW 4508   2.348   5.963   2.675
 1128SOL     OW 4509   3.996   8.550   0.029
 1128SOL    HW1 4510   3.943   8.504  -0.035
 1128SOL    HW2 4511   3.963   8.522   0.114
 1128SOL     MW 4512   3.985   8.541   0.032
 1129SOL     OW 4513   1.449   3.794   7.388
 1129SOL    HW1 4514   1.436   3.711   7.341
 1129SOL    HW2 4515   1.494   3.850   7.325
 1129SOL     MW 4516   1.453   3.790   7.374
 1130SOL     OW 4517   1.780   4.625   5.362
 1130SOL    HW1 4518   1.716   4.688   5.329
 1130SOL    HW2 4519   1.857   4.638   5.307
 1130SOL     MW 4520   1.781   4.634   5.350
 1131SOL     OW 4521   0.276   8.369   7.714
 1131SOL    HW1 4522   0.340   8.313   7.757
 1131SOL    HW2 4523   0.303   8.458   7.737
 1131SOL     MW 4524   0.287   8.374   7.723
 1132SOL     OW 4525   7.789   5.005   7.933
 1132SOL    HW1 4526   7.717   4.951   7.965
 1132SOL    HW2 4527   7.773   5.091   7.972
 1132SOL     MW 4528   7.778   5.009   7.942
 1133SOL     OW 4529   9.995   8.929   3.908
 1133SOL    HW1 4530  10.042   8.887   3.836
 1133SOL    HW2 4531  10.065   8.956   3.969
 1133SOL     MW 4532  10.010   8.927   3.907
 1134SOL     OW 4533   9.273  10.076   1.352
 1134SOL    HW1 4534   9.251   9.994   1.308
 1134SOL    HW2 4535   9.205  10.088   1.418
 1134SOL     MW 4536   9.262  10.067   1.355
 1135SOL     OW 4537   4.720   3.389   6.021
 1135SOL    HW1 4538   4.633   3.393   5.983
 1135SOL    HW2 4539   4.749   3.480   6.025
 1135SOL     MW 4540   4.713   3.401   6.017
 1136SOL     OW 4541   5.747   0.009   4.964
 1136SOL    HW1 4542   5.710   0.004   5.053
 1136SOL    HW2 4543   5.807   0.083   4.967
 1136SOL     MW 4544   5.750   0.018   4.976
 1137SOL     OW 4545   3.408   2.541   9.529
 1137SOL    HW1 4546   3.318   2.573   9.539
 1137SOL    HW2 4547   3.406   2.488   9.449
 1137SOL     MW 4548   3.396   2.538   9.520
 1138SOL     OW 4549   6.612   6.772   1.935
 1138SOL    HW1 4550   6.643   6.744   1.849
 1138SOL    HW2 4551   6.523   6.737   1.941
 1138SOL     MW 4552   6.604   6.764   1.925
 1139SOL     OW 4553   0.146   8.814   0.039
 1139SOL    HW1 4554   0.093   8.858   0.104
 1139SOL    HW2 4555   0.111   8.725   0.034
 1139SOL     MW 4556   0.135   8.808   0.047
 1140SOL     OW 4557   7.339   9.612   9.350
 1140SOL    HW1 4558   7.357   9.599   9.443
 1140SOL    HW2 4559   7.251   9.651   9.348
 1140SOL     MW 4560   7.330   9.616   9.362
 1141SOL     OW 4561   9.514   2.127   3.623
 1141SOL    HW1 4562   9.477   2.062   3.683
 1141SOL    HW2 4563   9.601   2.146   3.659
 1141SOL     MW 4564   9.520   2.121   3.636
 1142SOL     OW 4565   9.416   9.834   5.354
 1142SOL    HW1 4566   9.484   9.769   5.372
 1142SOL    HW2 4567   9.358   9.791   5.291
 1142SOL     MW 4568   9.417   9.820   5.348
 1143SOL     OW 4569   0.295   4.108   3.046
 1143SOL    HW1 4570   0.373   4.070   3.086
 1143SOL    HW2 4571   0.240   4.032   3.025
 1143SOL     MW 4572   0.298   4.093   3.048
 1144SOL     OW 4573   3.363   3.969   4.316
 1144SOL    HW1 4574   3.413   3.941   4.393
 1144SOL    HW2 4575   3.272   3.970   4.346
 1144SOL     MW 4576   3.358   3.966   4.330
 1145SOL     OW 4577   0.079   4.248   2.946
 1145SOL    HW1 4578   0.161   4.217   2.984
 1145SOL    HW2 4579   0.077   4.207   2.859
 1145SOL     MW 4580   0.089   4.238   2.940
 1146SOL     OW 4581   7.079   4.206   4.144
 1146SOL    HW1 4582   7.079   4.128   4.088
 1146SOL    HW2 4583   7.067   4.172   4.233
 1146SOL     MW 4584   7.077   4.191   4.148
 1147SOL     OW 4585   0.102   4.047   2.727
 1147SOL    HW1 4586   0.037   3.994   2.680
 1147SOL    HW2 4587   0.185   4.027   2.684
 1147SOL     MW 4588   0.104   4.038   2.716
 1148SOL     OW 4589   0.768   6.561   9.341
 1148SOL    HW1 4590   0.838   6.524   9.287
 1148SOL    HW2 4591   0.810   6.580   9.425
 1148SOL     MW 4592   0.782   6.558   9.345
 1149SOL     OW 4593   9.483   4.895   8.124
 1149SOL    HW1 4594   9.489   4.809   8.165
 1149SOL    HW2 4595   9.544   4.890   8.050
 1149SOL     MW 4596   9.492   4.883   8.120
 1150SOL     OW 4597   1.180  10.136   1.566
 1150SOL    HW1 4598   1.150  10.048   1.587
 1150SOL    HW2 4599   1.100  10.189   1.563
 1150SOL     MW 4600   1.166  10.131   1.568
 1151SOL     OW 4601   0.181   3.713   2.495
 1151SOL    HW1 4602   0.179   3.694   2.401
 1151SOL    HW2 4603   0.230   3.640   2.533
 1151SOL     MW 4604   0.187   3.701   2.488
 1152SOL     OW 4605   5.610   1.375   8.223
 1152SOL    HW1 4606   5.569   1.458   8.196
 1152SOL    HW2 4607   5.673   1.356   8.154
 1152SOL     MW 4608   5.613   1.384   8.211
 1153SOL     OW 4609   6.101   4.841   8.768
 1153SOL    HW1 4610   6.116   4.801   8.854
 1153SOL    HW2 4611   6.156   4.919   8.769
 1153SOL     MW 4612   6.110   4.846   8.779
 1154SOL     OW 4613   3.749   8.759   9.799
 1154SOL    HW1 4614   3.792   8.809   9.868
 1154SOL    HW2 4615   3.756   8.814   9.721
 1154SOL     MW 4616   3.755   8.772   9.798
 1155SOL     OW 4617   1.987   7.918   7.373
 1155SOL    HW1 4618   2.054   7.880   7.430
 1155SOL    HW2 4619   2.016   7.897   7.284
 1155SOL     MW 4620   2.000   7.911   7.369
 1156SOL     OW 4621   6.297   7.295   0.868
 1156SOL    HW1 4622   6.229   7.292   0.935
 1156SOL    HW2 4623   6.353   7.220   0.887
 1156SOL     MW 4624   6.295   7.285   0.879
 1157SOL     OW 4625   3.822   0.207   8.453
 1157SOL    HW1 4626   3.902   0.156   8.439
 1157SOL    HW2 4627   3.793   0.184   8.541
 1157SOL     MW 4628   3.829   0.198   8.462
 1158SOL     OW 4629   4.089   4.950   1.298
 1158SOL    HW1 4630   4.136   5.033   1.301
 1158SOL    HW2 4631   4.155   4.886   1.268
 1158SOL     MW 4632   4.103   4.952   1.294
 1159SOL     OW 4633   1.813   8.256   6.813
 1159SOL    HW1 4634   1.786   8.283   6.901
 1159SOL    HW2 4635   1.828   8.162   6.820
 1159SOL     MW 4636   1.811   8.247   6.825
 1160SOL     OW 4637   6.850   7.998   4.912
 1160SOL    HW1 4638   6.920   7.940   4.942
 1160SOL    HW2 4639   6.834   7.972   4.821
 1160SOL     MW 4640   6.857   7.987   4.904
 1161SOL     OW 4641   6.534   1.453   0.038
 1161SOL    HW1 4642   6.546   1.493  -0.048
 1161SOL    HW2 4643   6.540   1.527   0.099
 1161SOL     MW 4644   6.537   1.468   0.035
 1162SOL     OW 4645   5.649   4.287   4.936
 1162SOL    HW1 4646   5.615   4.235   5.009
 1162SOL    HW2 4647   5.656   4.226   4.863
 1162SOL     MW 4648   5.646   4.273   4.936
 1163SOL     OW 4649   1.706   5.139   8.067
 1163SOL    HW1 4650   1.720   5.078   8.139
 1163SOL    HW2 4651   1.697   5.225   8.110
 1163SOL     MW 4652   1.706   5.142   8.082
 1164SOL     OW 4653  10.086   8.801   0.668
 1164SOL    HW1 4654  10.022   8.869   0.689
 1164SOL    HW2 4655  10.166   8.829   0.712
 1164SOL     MW 4656  10.088   8.813   0.676
 1165SOL     OW 4657   4.515   5.976   3.184
 1165SOL    HW1 4658   4.598   6.002   3.224
 1165SOL    HW2 4659   4.482   5.906   3.240
 1165SOL     MW 4660   4.522   5.970   3.196
 1166SOL     OW 4661   5.628   8.439   8.057
 1166SOL    HW1 4662   5.534   8.443   8.039
 1166SOL    HW2 4663   5.635   8.442   8.152
 1166SOL     MW 4664   5.617   8.440   8.067
 1167SOL     OW 4665   6.340   8.206   3.450
 1167SOL    HW1 4666   6.363   8.298   3.441
 1167SOL    HW2 4667   6.262   8.206   3.506
 1167SOL     MW 4668   6.333   8.218   3.456
 1168SOL     OW 4669   4.202   1.683   3.373
 1168SOL    HW1 4670   4.257   1.760   3.362
 1168SOL    HW2 4671   4.182   1.655   3.283
 1168SOL     MW 4672   4.206   1.689   3.360
 1169SOL     OW 4673   7.754   0.076   8.635
 1169SOL    HW1 4674   7.784   0.008   8.695
 1169SOL    HW2 4675   7.812   0.069   8.559
 1169SOL     MW 4676   7.765   0.066   8.633
 1170SOL     OW 4677   1.256   3.839   9.990
 1170SOL    HW1 4678   1.161   3.836   9.976
 1170SOL    HW2 4679   1.284   3.919   9.945
 1170SOL     MW 4680   1.247   3.849   9.983
 1171SOL     OW 4681   7.464   8.842   2.448
 1171SOL    HW1 4682   7.403   8.854   2.375
 1171SOL    HW2 4683   7.434   8.761   2.490
 1171SOL     MW 4684   7.452   8.833   2.444
 1172SOL     OW 4685   1.206   2.864   1.041
 1172SOL    HW1 4686   1.281   2.866   0.981
 1172SOL    HW2 4687   1.150   2.795   1.006
 1172SOL     MW 4688   1.209   2.856   1.029
 1173SOL     OW 4689   9.529   7.281   3.147
 1173SOL    HW1 4690   9.592   7.221   3.187
 1173SOL    HW2 4691   9.456   7.224   3.121
 1173SOL     MW 4692   9.528   7.266   3.149
 1174SOL     OW 4693   5.642   0.618   7.041
 1174SOL    HW1 4694   5.610   0.663   7.119
 1174SOL    HW2 4695   5.564   0.608   6.986
 1174SOL     MW 4696   5.628   0.623   7.044
 1175SOL     OW 4697   2.365   5.130   7.565
 1175SOL    HW1 4698   2.386   5.145   7.473
 1175SOL    HW2 4699   2.270   5.140   7.569
 1175SOL     MW 4700   2.355   5.133   7.554
 1176SOL     OW 4701   8.523   1.036   6.019
 1176SOL    HW1 4702   8.555   1.012   6.106
 1176SOL    HW2 4703   8.499   0.952   5.979
 1176SOL     MW 4704   8.524   1.022   6.025
 1177SOL     OW 4705   3.698   2.443   7.054
 1177SOL    HW1 4706   3.754   2.518   7.075
 1177SOL    HW2 4707   3.727   2.415   6.967
 1177SOL     MW 4708   3.709   2.449   7.045
 1178SOL     OW 4709   5.164   1.044   2.449
 1178SOL    HW1 4710   5.077   1.073   2.422
 1178SOL    HW2 4711   5.158   1.035   2.544
 1178SOL     MW 4712   5.152   1.046   2.458
 1179SOL     OW 4713   2.096   3.118   4.608
 1179SOL    HW1 4714   2.073   3.050   4.670
 1179SOL    HW2 4715   2.156   3.176   4.656
 1179SOL     MW 4716   2.101   3.117   4.622
 1180SOL     OW 4717   9.258   9.939   7.637
 1180SOL    HW1 4718   9.276  10.033   7.627
 1180SOL    HW2 4719   9.162   9.933   7.639
 1180SOL     MW 4720   9.248   9.950   7.636
 1181SOL     OW 4721   0.289   0.006   0.610
 1181SOL    HW1 4722   0.194   0.011   0.598
 1181SOL    HW2 4723   0.300  -0.008   0.704
 1181SOL     MW 4724   0.278   0.005   0.620
 1182SOL     OW 4725   8.071   9.935   4.548
 1182SOL    HW1 4726   8.018   9.961   4.623
 1182SOL    HW2 4727   8.070  10.012   4.491
 1182SOL     MW 4728   8.064   9.948   4.551
 1183SOL     OW 4729   3.437   4.583   3.999
 1183SOL    HW1 4730   3.470   4.522   4.064
 1183SOL    HW2 4731   3.348   4.604   4.028
 1183SOL     MW 4732   3.430   4.578   4.011
 1184SOL     OW 4733   5.729   8.100   4.936
 1184SOL    HW1 4734   5.725   8.019   4.987
 1184SOL    HW2 4735   5.704   8.169   4.998
 1184SOL     MW 4736   5.725   8.099   4.951
 1185SOL     OW 4737   8.832   5.404   9.021
 1185SOL    HW1 4738   8.759   5.464   9.035
 1185SOL    HW2 4739   8.832   5.388   8.926
 1185SOL     MW 4740   8.823   5.409   9.010
 1186SOL     OW 4741   4.491   4.423   5.230
 1186SOL    HW1 4742   4.483   4.479   5.152
 1186SOL    HW2 4743   4.414   4.444   5.283
 1186SOL     MW 4744   4.480   4.433   5.226
 1187SOL     OW 4745   1.037   1.282   2.453
 1187SOL    HW1 4746   1.010   1.312   2.540
 1187SOL    HW2 4747   0.967   1.313   2.394
 1187SOL     MW 4748   1.024   1.290   2.457
 1188SOL     OW 4749   4.222   8.071   1.306
 1188SOL    HW1 4750   4.208   8.095   1.398
 1188SOL    HW2 4751   4.301   8.118   1.281
 1188SOL     MW 4752   4.230   8.080   1.315
 1189SOL     OW 4753   2.773   9.657   7.437
 1189SOL    HW1 4754   2.759   9.710   7.358
 1189SOL    HW2 4755   2.699   9.597   7.439
 1189SOL     MW 4756   2.762   9.656   7.427
 1190SOL     OW 4757   4.141   1.526   6.002
 1190SOL    HW1 4758   4.219   1.534   5.947
 1190SOL    HW2 4759   4.175   1.505   6.089
 1190SOL     MW 4760   4.155   1.524   6.006
 1191SOL     OW 4761   3.985  10.043   5.478
 1191SOL    HW1 4762   3.975  10.134   5.451
 1191SOL    HW2 4763   3.950  10.041   5.567
 1191SOL     MW 4764   3.979  10.054   5.486
 1192SOL     OW 4765   6.898   3.514   0.953
 1192SOL    HW1 4766   6.831   3.487   0.891
 1192SOL    HW2 4767   6.950   3.579   0.906
 1192SOL     MW 4768   6.896   3.519   0.939
 1193SOL     OW 4769   5.008   7.099   6.334
 1193SOL    HW1 4770   5.100   7.075   6.346
 1193SOL    HW2 4771   4.964   7.061   6.410
 1193SOL     MW 4772   5.014   7.091   6.345
 1194SOL     OW 4773   8.698   7.082   3.360
 1194SOL    HW1 4774   8.739   7.030   3.429
 1194SOL    HW2 4775   8.759   7.154   3.345
 1194SOL     MW 4776   8.711   7.084   3.367
 1195SOL     OW 4777   8.471   0.929   7.296
 1195SOL    HW1 4778   8.518   0.864   7.347
 1195SOL    HW2 4779   8.536   0.963   7.234
 1195SOL     MW 4780   8.485   0.925   7.295
 1196SOL     OW 4781   5.182   1.866   8.280
 1196SOL    HW1 4782   5.124   1.796   8.310
 1196SOL    HW2 4783   5.220   1.902   8.360
 1196SOL     MW 4784   5.179   1.861   8.294
 1197SOL     OW 4785   9.571   4.065   7.212
 1197SOL    HW1 4786   9.625   4.058   7.291
 1197SOL    HW2 4787   9.584   4.154   7.182
 1197SOL     MW 4788   9.580   4.075   7.218
 1198SOL     OW 4789   8.349   6.336   1.539
 1198SOL    HW1 4790   8.414   6.324   1.608
 1198SOL    HW2 4791   8.284   6.268   1.556
 1198SOL     MW 4792   8.349   6.326   1.550
 1199SOL     OW 4793   4.968   2.339   6.122
 1199SOL    HW1 4794   4.941   2.401   6.189
 1199SOL    HW2 4795   4.895   2.278   6.115
 1199SOL     MW 4796   4.955   2.339   6.130
 1200SOL     OW 4797   7.652   4.202   4.770
 1200SOL    HW1 4798   7.689   4.247   4.846
 1200SOL    HW2 4799   7.653   4.267   4.700
 1200SOL     MW 4800   7.657   4.216   4.771
 1201SOL     OW 4801   1.083   6.008   3.947
 1201SOL    HW1 4802   1.097   6.067   4.021
 1201SOL    HW2 4803   1.163   5.956   3.943
 1201SOL     MW 4804   1.095   6.008   3.956
 1202SOL     OW 4805   3.796   9.297   7.014
 1202SOL    HW1 4806   3.780   9.362   6.946
 1202SOL    HW2 4807   3.854   9.233   6.972
 1202SOL     MW 4808   3.801   9.297   7.000
 1203SOL     OW 4809   2.409   6.390   6.466
 1203SOL    HW1 4810   2.345   6.322   6.444
 1203SOL    HW2 4811   2.371   6.470   6.431
 1203SOL     MW 4812   2.396   6.391   6.459
 1204SOL     OW 4813   3.423   1.223   5.259
 1204SOL    HW1 4814   3.478   1.166   5.206
 1204SOL    HW2 4815   3.417   1.179   5.344
 1204SOL     MW 4816   3.430   1.210   5.263
 1205SOL     OW 4817   5.986   2.041   9.229
 1205SOL    HW1 4818   5.898   2.009   9.250
 1205SOL    HW2 4819   6.026   1.969   9.181
 1205SOL     MW 4820   5.980   2.028   9.226
 1206SOL     OW 4821   9.282   7.297   5.565
 1206SOL    HW1 4822   9.228   7.341   5.631
 1206SOL    HW2 4823   9.220   7.243   5.516
 1206SOL     MW 4824   9.267   7.296   5.567
 1207SOL     OW 4825   1.995   9.595   9.264
 1207SOL    HW1 4826   1.919   9.553   9.305
 1207SOL    HW2 4827   2.070   9.545   9.296
 1207SOL     MW 4828   1.995   9.584   9.274
 1208SOL     OW 4829   5.607   6.907   4.414
 1208SOL    HW1 4830   5.701   6.888   4.412
 1208SOL    HW2 4831   5.573   6.853   4.485
 1208SOL     MW 4832   5.615   6.898   4.423
 1209SOL     OW 4833   9.024   3.893   0.705
 1209SOL    HW1 4834   9.115   3.878   0.678
 1209SOL    HW2 4835   9.011   3.834   0.779
 1209SOL     MW 4836   9.034   3.883   0.711
 1210SOL     OW 4837   4.237   9.948   5.481
 1210SOL    HW1 4838   4.147   9.978   5.474
 1210SOL    HW2 4839   4.234   9.877   5.546
 1210SOL     MW 4840   4.225   9.943   5.488
 1211SOL     OW 4841   9.397   6.045  10.044
 1211SOL    HW1 4842   9.387   6.138  10.025
 1211SOL    HW2 4843   9.325   6.024  10.103
 1211SOL     MW 4844   9.387   6.054  10.049
 1212SOL     OW 4845   0.873   3.472   1.812
 1212SOL    HW1 4846   0.795   3.520   1.784
 1212SOL    HW2 4847   0.935   3.481   1.739
 1212SOL     MW 4848   0.871   3.480   1.799
 1213SOL     OW 4849   3.127   4.004   7.113
 1213SOL    HW1 4850   3.051   4.038   7.160
 1213SOL    HW2 4851   3.202   4.045   7.156
 1213SOL     MW 4852   3.127   4.014   7.124
 1214SOL     OW 4853   3.061   2.417   8.062
 1214SOL    HW1 4854   3.003   2.348   8.096
 1214SOL    HW2 4855   3.136   2.370   8.026
 1214SOL     MW 4856   3.063   2.402   8.062
 1215SOL     OW 4857   6.303   0.387   1.493
 1215SOL    HW1 4858   6.258   0.435   1.563
 1215SOL    HW2 4859   6.340   0.310   1.537
 1215SOL     MW 4860   6.302   0.383   1.508
 1216SOL     OW 4861   0.566   4.244   9.844
 1216SOL    HW1 4862   0.588   4.158   9.806
 1216SOL    HW2 4863   0.651   4.280   9.871
 1216SOL     MW 4864   0.580   4.238   9.842
 1217SOL     OW 4865   0.517   6.883   8.871
 1217SOL    HW1 4866   0.605   6.871   8.908
 1217SOL    HW2 4867   0.462   6.824   8.921
 1217SOL     MW 4868   0.521   6.874   8.882
 1218SOL     OW 4869   5.438   4.172   5.763
 1218SOL    HW1 4870   5.391   4.220   5.695
 1218SOL    HW2 4871   5.454   4.086   5.725
 1218SOL     MW 4872   5.434   4.167   5.750
 1219SOL     OW 4873   8.311   4.620   3.164
 1219SOL    HW1 4874   8.360   4.691   3.206
 1219SOL    HW2 4875   8.242   4.598   3.227
 1219SOL     MW 4876   8.308   4.626   3.178
 1220SOL     OW 4877   2.271   6.205   4.287
 1220SOL    HW1 4878   2.315   6.251   4.215
 1220SOL    HW2 4879   2.210   6.146   4.243
 1220SOL     MW 4880   2.269   6.204   4.272
 1221SOL     OW 4881   7.267   2.414   7.124
 1221SOL    HW1 4882   7.240   2.398   7.033
 1221SOL    HW2 4883   7.194   2.382   7.177
 1221SOL     MW 4884   7.254   2.408   7.119
 1222SOL     OW 4885   2.764   7.364   7.328
 1222SOL    HW1 4886   2.808   7.339   7.247
 1222SOL    HW2 4887   2.705   7.290   7.347
 1222SOL     MW 4888   2.762   7.351   7.320
 1223SOL     OW 4889   2.530   4.957   7.711
 1223SOL    HW1 4890   2.468   5.005   7.656
 1223SOL    HW2 4891   2.601   5.019   7.728
 1223SOL     MW 4892   2.531   4.971   7.706
 1224SOL     OW 4893   5.462  10.052   0.553
 1224SOL    HW1 4894   5.456  10.147   0.565
 1224SOL    HW2 4895   5.432  10.015   0.635
 1224SOL     MW 4896   5.458  10.060   0.565
 1225SOL     OW 4897   1.547   5.332   4.226
 1225SOL    HW1 4898   1.617   5.363   4.284
 1225SOL    HW2 4899   1.515   5.252   4.268
 1225SOL     MW 4900   1.552   5.326   4.239
 1226SOL     OW 4901   7.888   5.141   0.090
 1226SOL    HW1 4902   7.935   5.209   0.138
 1226SOL    HW2 4903   7.799   5.143   0.126
 1226SOL     MW 4904   7.883   5.150   0.100
 1227SOL     OW 4905   3.853   0.371   1.685
 1227SOL    HW1 4906   3.761   0.355   1.665
 1227SOL    HW2 4907   3.873   0.453   1.641
 1227SOL     MW 4908   3.844   0.380   1.677
 1228SOL     OW 4909   5.646   7.494   9.238
 1228SOL    HW1 4910   5.610   7.576   9.202
 1228SOL    HW2 4911   5.572   7.433   9.234
 1228SOL     MW 4912   5.632   7.497   9.233
 1229SOL     OW 4913   3.593   3.100   1.914
 1229SOL    HW1 4914   3.644   3.085   1.994
 1229SOL    HW2 4915   3.611   3.024   1.859
 1229SOL     MW 4916   3.602   3.088   1.918
 1230SOL     OW 4917   9.958   0.406   8.535
 1230SOL    HW1 4918   9.903   0.449   8.470
 1230SOL    HW2 4919   9.942   0.455   8.616
 1230SOL     MW 4920   9.949   0.418   8.537
 1231SOL     OW 4921   2.509   2.673   0.313
 1231SOL    HW1 4922   2.485   2.581   0.300
 1231SOL    HW2 4923   2.484   2.692   0.403
 1231SOL     MW 4924   2.503   2.663   0.323
 1232SOL     OW 4925   6.245   3.556   5.673
 1232SOL    HW1 4926   6.269   3.643   5.703
 1232SOL    HW2 4927   6.150   3.553   5.679
 1232SOL     MW 4928   6.236   3.567   5.678
 1233SOL     OW 4929   6.562   7.643   9.572
 1233SOL    HW1 4930   6.497   7.702   9.610
 1233SOL    HW2 4931   6.546   7.647   9.478
 1233SOL     MW 4932   6.552   7.651   9.565
 1234SOL     OW 4933   7.626   8.837   6.957
 1234SOL    HW1 4934   7.622   8.833   7.052
 1234SOL    HW2 4935   7.716   8.863   6.938
 1234SOL     MW 4936   7.637   8.840   6.966
 1235SOL     OW 4937   8.216   8.122   7.849
 1235SOL    HW1 4938   8.151   8.114   7.779
 1235SOL    HW2 4939   8.272   8.194   7.822
 1235SOL     MW 4940   8.215   8.130   7.837
 1236SOL     OW 4941   6.190   4.406   9.306
 1236SOL    HW1 4942   6.168   4.476   9.368
 1236SOL    HW2 4943   6.114   4.347   9.310
 1236SOL     MW 4944   6.177   4.407   9.315
 1237SOL     OW 4945   7.325   5.419   1.981
 1237SOL    HW1 4946   7.328   5.493   1.921
 1237SOL    HW2 4947   7.334   5.457   2.068
 1237SOL     MW 4948   7.326   5.433   1.984
 1238SOL     OW 4949   2.492   6.519   5.688
 1238SOL    HW1 4950   2.419   6.547   5.633
 1238SOL    HW2 4951   2.558   6.488   5.626
 1238SOL     MW 4952   2.491   6.519   5.673
 1239SOL     OW 4953   4.532   4.794   4.234
 1239SOL    HW1 4954   4.562   4.813   4.322
 1239SOL    HW2 4955   4.444   4.759   4.245
 1239SOL     MW 4956   4.525   4.792   4.246
 1240SOL     OW 4957   0.221   7.114   1.691
 1240SOL    HW1 4958   0.250   7.152   1.774
 1240SOL    HW2 4959   0.154   7.174   1.659
 1240SOL     MW 4960   0.216   7.127   1.698
 1241SOL     OW 4961   9.491   8.503   6.147
 1241SOL    HW1 4962   9.449   8.437   6.091
 1241SOL    HW2 4963   9.585   8.491   6.132
 1241SOL     MW 4964   9.498   8.493   6.138
 1242SOL     OW 4965   3.061   5.465   0.503
 1242SOL    HW1 4966   2.976   5.432   0.531
 1242SOL    HW2 4967   3.096   5.511   0.580
 1242SOL     MW 4968   3.055   5.467   0.516
 1243SOL     OW 4969   1.538   4.513   2.263
 1243SOL    HW1 4970   1.569   4.530   2.174
 1243SOL    HW2 4971   1.592   4.569   2.319
 1243SOL     MW 4972   1.549   4.522   2.259
 1244SOL     OW 4973   8.033   9.955   9.046
 1244SOL    HW1 4974   8.077   9.892   8.989
 1244SOL    HW2 4975   7.988  10.015   8.986
 1244SOL     MW 4976   8.033   9.955   9.031
 1245SOL     OW 4977   3.511   5.929   4.670
 1245SOL    HW1 4978   3.509   6.001   4.733
 1245SOL    HW2 4979   3.577   5.869   4.704
 1245SOL     MW 4980   3.519   5.931   4.682
 1246SOL     OW 4981   6.373   3.042   5.092
 1246SOL    HW1 4982   6.377   2.968   5.031
 1246SOL    HW2 4983   6.430   3.108   5.052
 1246SOL     MW 4984   6.381   3.041   5.079
 1247SOL     OW 4985   0.146   1.287   9.812
 1247SOL    HW1 4986   0.119   1.350   9.745
 1247SOL    HW2 4987   0.241   1.295   9.816
 1247SOL     MW 4988   0.154   1.296   9.804
 1248SOL     OW 4989   7.342   2.810   8.635
 1248SOL    HW1 4990   7.382   2.883   8.683
 1248SOL    HW2 4991   7.350   2.735   8.694
 1248SOL     MW 4992   7.349   2.810   8.649
 1249SOL     OW 4993   9.763   1.408   5.622
 1249SOL    HW1 4994   9.832   1.431   5.560
 1249SOL    HW2 4995   9.686   1.455   5.591
 1249SOL     MW 4996   9.762   1.417   5.610
 1250SOL     OW 4997   0.937   3.778   7.262
 1250SOL    HW1 4998   1.033   3.783   7.265
 1250SOL    HW2 4999   0.918   3.700   7.210
 1250SOL     MW 5000   0.947   3.769   7.256
 1251SOL     OW 5001   9.567   6.522   8.148
 1251SOL    HW1 5002   9.514   6.566   8.082
 1251SOL    HW2 5003   9.567   6.430   8.121
 1251SOL     MW 5004   9.560   6.516   8.136
 1252SOL     OW 5005   6.694   0.479   9.852
 1252SOL    HW1 5006   6.717   0.563   9.813
 1252SOL    HW2 5007   6.756   0.417   9.815
 1252SOL     MW 5008   6.705   0.482   9.843
 1253SOL     OW 5009   0.983   3.806  10.020
 1253SOL    HW1 5010   1.016   3.794  10.109
 1253SOL    HW2 5011   0.922   3.734  10.007
 1253SOL     MW 5012   0.980   3.795  10.030
 1254SOL     OW 5013   4.497   4.115   7.734
 1254SOL    HW1 5014   4.523   4.191   7.786
 1254SOL    HW2 5015   4.573   4.057   7.737
 1254SOL     MW 5016   4.510   4.118   7.741
 1255SOL     OW 5017   9.059   6.901   6.674
 1255SOL    HW1 5018   9.119   6.975   6.687
 1255SOL    HW2 5019   9.035   6.905   6.582
 1255SOL     MW 5020   9.063   6.911   6.664
 1256SOL     OW 5021   6.887   0.740   6.812
 1256SOL    HW1 5022   6.957   0.782   6.862
 1256SOL    HW2 5023   6.807   0.785   6.839
 1256SOL     MW 5024   6.886   0.751   6.822
 1257SOL     OW 5025   3.977   8.729   8.834
 1257SOL    HW1 5026   3.996   8.636   8.824
 1257SOL    HW2 5027   3.888   8.732   8.870
 1257SOL     MW 5028   3.968   8.717   8.837
 1258SOL     OW 5029  10.097   3.765   6.517
 1258SOL    HW1 5030  10.138   3.770   6.604
 1258SOL    HW2 5031  10.004   3.749   6.536
 1258SOL     MW 5032  10.090   3.763   6.531
 1259SOL     OW 5033   1.391   4.035   9.839
 1259SOL    HW1 5034   1.477   4.070   9.863
 1259SOL    HW2 5035   1.387   4.046   9.744
 1259SOL     MW 5036   1.402   4.041   9.830
 1260SOL     OW 5037   9.574   0.295   2.412
 1260SOL    HW1 5038   9.495   0.241   2.420
 1260SOL    HW2 5039   9.646   0.237   2.437
 1260SOL     MW 5040   9.573   0.281   2.416
 1261SOL     OW 5041   7.051   5.338   0.630
 1261SOL    HW1 5042   7.090   5.269   0.576
 1261SOL    HW2 5043   7.112   5.350   0.702
 1261SOL     MW 5044   7.064   5.330   0.632
 1262SOL     OW 5045   6.441   4.030   7.019
 1262SOL    HW1 5046   6.492   4.102   6.981
 1262SOL    HW2 5047   6.351   4.045   6.987
 1262SOL     MW 5048   6.436   4.041   7.010
 1263SOL     OW 5049   6.971   3.668   0.725
 1263SOL    HW1 5050   6.892   3.617   0.711
 1263SOL    HW2 5051   7.038   3.624   0.672
 1263SOL     MW 5052   6.969   3.656   0.716
 1264SOL     OW 5053   0.095   6.570   5.880
 1264SOL    HW1 5054   0.183   6.604   5.895
 1264SOL    HW2 5055   0.076   6.517   5.956
 1264SOL     MW 5056   0.104   6.568   5.891
 1265SOL     OW 5057   5.313   8.828   2.542
 1265SOL    HW1 5058   5.304   8.923   2.551
 1265SOL    HW2 5059   5.406   8.815   2.520
 1265SOL     MW 5060   5.324   8.839   2.540
 1266SOL     OW 5061   5.608   8.194   5.731
 1266SOL    HW1 5062   5.593   8.288   5.733
 1266SOL    HW2 5063   5.604   8.167   5.823
 1266SOL     MW 5064   5.605   8.202   5.743
 1267SOL     OW 5065   6.458   6.563   6.121
 1267SOL    HW1 5066   6.386   6.626   6.121
 1267SOL    HW2 5067   6.516   6.594   6.191
 1267SOL     MW 5068   6.456   6.575   6.130
 1268SOL     OW 5069   3.817   6.389   8.758
 1268SOL    HW1 5070   3.912   6.384   8.756
 1268SOL    HW2 5071   3.788   6.297   8.761
 1268SOL     MW 5072   3.825   6.376   8.758
 1269SOL     OW 5073   6.234   5.846   9.914
 1269SOL    HW1 5074   6.275   5.760   9.907
 1269SOL    HW2 5075   6.208   5.853  10.006
 1269SOL     MW 5076   6.236   5.836   9.925
 1270SOL     OW 5077   1.855   3.282   4.285
 1270SOL    HW1 5078   1.841   3.244   4.198
 1270SOL    HW2 5079   1.912   3.219   4.330
 1270SOL     MW 5080   1.860   3.269   4.280
 1271SOL     OW 5081   2.948   9.433   0.918
 1271SOL    HW1 5082   2.895   9.453   0.995
 1271SOL    HW2 5083   2.887   9.391   0.857
 1271SOL     MW 5084   2.933   9.430   0.920
 1272SOL     OW 5085   7.794   0.878   3.036
 1272SOL    HW1 5086   7.845   0.959   3.045
 1272SOL    HW2 5087   7.762   0.859   3.124
 1272SOL     MW 5088   7.797   0.886   3.048
 1273SOL     OW 5089   3.557   3.714   7.803
 1273SOL    HW1 5090   3.593   3.673   7.724
 1273SOL    HW2 5091   3.564   3.646   7.870
 1273SOL     MW 5092   3.562   3.700   7.801
 1274SOL     OW 5093   3.685   3.409   3.344
 1274SOL    HW1 5094   3.758   3.348   3.346
 1274SOL    HW2 5095   3.608   3.355   3.363
 1274SOL     MW 5096   3.684   3.394   3.346
 1275SOL     OW 5097   6.118  10.163   0.023
 1275SOL    HW1 5098   6.205  10.133   0.048
 1275SOL    HW2 5099   6.070  10.167   0.106
 1275SOL     MW 5100   6.123  10.160   0.037
 1276SOL     OW 5101   5.067   4.263   7.539
 1276SOL    HW1 5102   5.079   4.339   7.596
 1276SOL    HW2 5103   5.002   4.291   7.475
 1276SOL     MW 5104   5.060   4.276   7.538
 1277SOL     OW 5105   3.983   7.217   6.279
 1277SOL    HW1 5106   4.040   7.145   6.303
 1277SOL    HW2 5107   3.997   7.283   6.347
 1277SOL     MW 5108   3.992   7.216   6.291
 1278SOL     OW 5109   9.151   8.863   0.721
 1278SOL    HW1 5110   9.064   8.903   0.714
 1278SOL    HW2 5111   9.210   8.937   0.736
 1278SOL     MW 5112   9.147   8.878   0.722
 1279SOL     OW 5113   9.660   4.779   7.250
 1279SOL    HW1 5114   9.607   4.842   7.202
 1279SOL    HW2 5115   9.599   4.734   7.308
 1279SOL     MW 5116   9.646   4.781   7.251
 1280SOL     OW 5117   2.903   6.387   4.776
 1280SOL    HW1 5118   2.964   6.315   4.789
 1280SOL    HW2 5119   2.875   6.379   4.684
 1280SOL     MW 5120   2.907   6.377   4.766
 1281SOL     OW 5121   3.193   1.041   4.042
 1281SOL    HW1 5122   3.214   0.955   4.006
 1281SOL    HW2 5123   3.141   1.083   3.974
 1281SOL     MW 5124   3.189   1.036   4.029
 1282SOL     OW 5125   7.184   5.178   1.917
 1282SOL    HW1 5126   7.271   5.148   1.890
 1282SOL    HW2 5127   7.198   5.269   1.946
 1282SOL     MW 5128   7.197   5.186   1.917
 1283SOL     OW 5129   7.561   8.910   4.575
 1283SOL    HW1 5130   7.484   8.967   4.573
 1283SOL    HW2 5131   7.606   8.928   4.493
 1283SOL     MW 5132   7.557   8.919   4.565
 1284SOL     OW 5133   7.318   4.611   3.453
 1284SOL    HW1 5134   7.238   4.645   3.413
 1284SOL    HW2 5135   7.381   4.682   3.446
 1284SOL     MW 5136   7.315   4.624   3.447
 1285SOL     OW 5137   4.764   2.921   4.693
 1285SOL    HW1 5138   4.729   2.902   4.780
 1285SOL    HW2 5139   4.859   2.906   4.702
 1285SOL     MW 5140   4.772   2.917   4.705
 1286SOL     OW 5141   4.868   9.901   7.523
 1286SOL    HW1 5142   4.914   9.910   7.440
 1286SOL    HW2 5143   4.901   9.820   7.561
 1286SOL     MW 5144   4.878   9.892   7.517
 1287SOL     OW 5145   2.629   2.536   5.487
 1287SOL    HW1 5146   2.706   2.592   5.479
 1287SOL    HW2 5147   2.616   2.528   5.582
 1287SOL     MW 5148   2.637   2.542   5.498
 1288SOL     OW 5149   6.540   9.342   0.592
 1288SOL    HW1 5150   6.620   9.346   0.538
 1288SOL    HW2 5151   6.511   9.433   0.599
 1288SOL     MW 5152   6.547   9.355   0.586
 1289SOL     OW 5153   3.296   9.571   3.141
 1289SOL    HW1 5154   3.375   9.616   3.111
 1289SOL    HW2 5155   3.252   9.636   3.197
 1289SOL     MW 5156   3.300   9.585   3.144
 1290SOL     OW 5157   8.300   1.345   5.209
 1290SOL    HW1 5158   8.307   1.353   5.304
 1290SOL    HW2 5159   8.356   1.270   5.187
 1290SOL     MW 5160   8.308   1.336   5.218
 1291SOL     OW 5161   0.448   6.173   5.023
 1291SOL    HW1 5162   0.486   6.130   5.100
 1291SOL    HW2 5163   0.395   6.244   5.060
 1291SOL     MW 5164   0.446   6.177   5.038
 1292SOL     OW 5165   9.371   0.527   7.743
 1292SOL    HW1 5166   9.401   0.559   7.658
 1292SOL    HW2 5167   9.375   0.603   7.800
 1292SOL     MW 5168   9.375   0.541   7.739
 1293SOL     OW 5169   3.182   5.092   2.400
 1293SOL    HW1 5170   3.165   5.144   2.479
 1293SOL    HW2 5171   3.257   5.135   2.359
 1293SOL     MW 5172   3.190   5.104   2.405
 1294SOL     OW 5173   7.741   8.511   0.293
 1294SOL    HW1 5174   7.775   8.426   0.268
 1294SOL    HW2 5175   7.658   8.519   0.247
 1294SOL     MW 5176   7.735   8.501   0.284
 1295SOL     OW 5177   2.954   0.258   8.786
 1295SOL    HW1 5178   2.979   0.284   8.875
 1295SOL    HW2 5179   2.897   0.328   8.756
 1295SOL     MW 5180   2.950   0.270   8.794
 1296SOL     OW 5181   5.475   2.087   7.052
 1296SOL    HW1 5182   5.418   2.070   6.977
 1296SOL    HW2 5183   5.552   2.130   7.016
 1296SOL     MW 5184   5.477   2.090   7.038
 1297SOL     OW 5185   2.817   6.892   2.918
 1297SOL    HW1 5186   2.880   6.821   2.901
 1297SOL    HW2 5187   2.786   6.917   2.831
 1297SOL     MW 5188   2.821   6.886   2.905
 1298SOL     OW 5189   7.530   3.638   6.473
 1298SOL    HW1 5190   7.575   3.558   6.499
 1298SOL    HW2 5191   7.480   3.664   6.551
 1298SOL     MW 5192   7.529   3.631   6.487
 1299SOL     OW 5193   8.942   8.957   3.603
 1299SOL    HW1 5194   8.932   8.867   3.569
 1299SOL    HW2 5195   8.928   9.013   3.526
 1299SOL     MW 5196   8.939   8.952   3.589
 1300SOL     OW 5197   8.875  10.133   9.742
 1300SOL    HW1 5198   8.894  10.207   9.798
 1300SOL    HW2 5199   8.790  10.101   9.771
 1300SOL     MW 5200   8.866  10.138   9.753
 1301SOL     OW 5201   7.089   1.039   0.700
 1301SOL    HW1 5202   7.033   1.028   0.778
 1301SOL    HW2 5203   7.076   1.131   0.676
 1301SOL     MW 5204   7.080   1.050   0.707
 1302SOL     OW 5205   6.871   4.584   7.566
 1302SOL    HW1 5206   6.812   4.541   7.505
 1302SOL    HW2 5207   6.860   4.536   7.648
 1302SOL     MW 5208   6.862   4.572   7.569
 1303SOL     OW 5209   5.654  10.029   7.134
 1303SOL    HW1 5210   5.714  10.102   7.150
 1303SOL    HW2 5211   5.690   9.985   7.057
 1303SOL     MW 5212   5.666  10.032   7.126
 1304SOL     OW 5213   4.180   3.484   9.995
 1304SOL    HW1 5214   4.227   3.528  10.066
 1304SOL    HW2 5215   4.240   3.415   9.966
 1304SOL     MW 5216   4.194   3.481  10.001
 1305SOL     OW 5217   9.631   1.860   2.202
 1305SOL    HW1 5218   9.572   1.804   2.253
 1305SOL    HW2 5219   9.588   1.869   2.117
 1305SOL     MW 5220   9.618   1.854   2.198
 1306SOL     OW 5221   8.685   4.491   2.918
 1306SOL    HW1 5222   8.593   4.485   2.946
 1306SOL    HW2 5223   8.694   4.424   2.850
 1306SOL     MW 5224   8.674   4.482   2.913
 1307SOL     OW 5225   1.597   3.206   8.091
 1307SOL    HW1 5226   1.510   3.233   8.063
 1307SOL    HW2 5227   1.656   3.269   8.049
 1307SOL     MW 5228   1.594   3.218   8.082
 1308SOL     OW 5229   4.378   1.904   3.324
 1308SOL    HW1 5230   4.435   1.901   3.247
 1308SOL    HW2 5231   4.407   1.980   3.373
 1308SOL     MW 5232   4.389   1.913   3.320
 1309SOL     OW 5233   9.830   6.361   3.349
 1309SOL    HW1 5234   9.904   6.323   3.396
 1309SOL    HW2 5235   9.798   6.290   3.293
 1309SOL     MW 5236   9.835   6.347   3.348
 1310SOL     OW 5237   7.975   1.247   2.238
 1310SOL    HW1 5238   8.060   1.242   2.282
 1310SOL    HW2 5239   7.977   1.329   2.190
 1310SOL     MW 5240   7.986   1.257   2.237
 1311SOL     OW 5241   8.484   6.261   5.186
 1311SOL    HW1 5242   8.495   6.302   5.272
 1311SOL    HW2 5243   8.424   6.188   5.202
 1311SOL     MW 5244   8.478   6.257   5.199
 1312SOL     OW 5245  10.143   0.433   6.470
 1312SOL    HW1 5246  10.098   0.360   6.512
 1312SOL    HW2 5247  10.190   0.393   6.396
 1312SOL     MW 5248  10.143   0.418   6.466
 1313SOL     OW 5249   1.553   3.956   7.197
 1313SOL    HW1 5250   1.514   3.937   7.112
 1313SOL    HW2 5251   1.575   4.049   7.193
 1313SOL     MW 5252   1.551   3.966   7.186
 1314SOL     OW 5253   6.134   2.754   5.872
 1314SOL    HW1 5254   6.149   2.841   5.836
 1314SOL    HW2 5255   6.113   2.769   5.964
 1314SOL     MW 5256   6.133   2.767   5.879
 1315SOL     OW 5257   4.499   8.716   6.041
 1315SOL    HW1 5258   4.572   8.679   5.991
 1315SOL    HW2 5259   4.439   8.749   5.974
 1315SOL     MW 5260   4.501   8.716   6.026
 1316SOL     OW 5261   5.457   1.540   6.093
 1316SOL    HW1 5262   5.457   1.624   6.048
 1316SOL    HW2 5263   5.459   1.475   6.022
 1316SOL     MW 5264   5.457   1.542   6.078
 1317SOL     OW 5265   0.746   1.584   7.969
 1317SOL    HW1 5266   0.829   1.591   7.922
 1317SOL    HW2 5267   0.748   1.656   8.032
 1317SOL     MW 5268   0.757   1.594   7.971
 1318SOL     OW 5269   1.053   4.596   0.610
 1318SOL    HW1 5270   1.123   4.543   0.572
 1318SOL    HW2 5271   1.093   4.682   0.625
 1318SOL     MW 5272   1.067   4.600   0.607
 1319SOL     OW 5273   5.536   7.785   3.587
 1319SOL    HW1 5274   5.567   7.813   3.501
 1319SOL    HW2 5275   5.527   7.690   3.580
 1319SOL     MW 5276   5.538   7.777   3.575
 1320SOL     OW 5277   7.870   6.637   2.440
 1320SOL    HW1 5278   7.961   6.656   2.464
 1320SOL    HW2 5279   7.870   6.635   2.345
 1320SOL     MW 5280   7.881   6.640   2.431
 1321SOL     OW 5281   4.638   1.508   0.279
 1321SOL    HW1 5282   4.570   1.445   0.303
 1321SOL    HW2 5283   4.610   1.590   0.318
 1321SOL     MW 5284   4.626   1.510   0.287
 1322SOL     OW 5285  10.056   6.941   6.511
 1322SOL    HW1 5286  10.085   6.994   6.585
 1322SOL    HW2 5287  10.112   6.967   6.438
 1322SOL     MW 5288  10.067   6.951   6.511
 1323SOL     OW 5289   5.872   2.644   6.180
 1323SOL    HW1 5290   5.941   2.579   6.166
 1323SOL    HW2 5291   5.794   2.606   6.138
 1323SOL     MW 5292   5.871   2.631   6.173
 1324SOL     OW 5293   9.600   9.872   2.626
 1324SOL    HW1 5294   9.661   9.935   2.588
 1324SOL    HW2 5295   9.562   9.917   2.701
 1324SOL     MW 5296   9.603   9.886   2.631
 1325SOL     OW 5297   4.575   4.443   6.996
 1325SOL    HW1 5298   4.549   4.384   6.925
 1325SOL    HW2 5299   4.539   4.403   7.075
 1325SOL     MW 5300   4.567   4.430   6.997
 1326SOL     OW 5301   7.612   0.069   3.617
 1326SOL    HW1 5302   7.686   0.066   3.677
 1326SOL    HW2 5303   7.537   0.044   3.671
 1326SOL     MW 5304   7.612   0.065   3.632
 1327SOL     OW 5305   9.012   1.592   5.421
 1327SOL    HW1 5306   9.067   1.576   5.343
 1327SOL    HW2 5307   9.059   1.550   5.492
 1327SOL     MW 5308   9.025   1.585   5.420
 1328SOL     OW 5309   6.074   0.442   8.403
 1328SOL    HW1 5310   6.079   0.347   8.410
 1328SOL    HW2 5311   6.106   0.474   8.487
 1328SOL     MW 5312   6.079   0.434   8.415
 1329SOL     OW 5313   9.208   4.629   1.330
 1329SOL    HW1 5314   9.214   4.600   1.421
 1329SOL    HW2 5315   9.269   4.572   1.283
 1329SOL     MW 5316   9.216   4.618   1.335
 1330SOL     OW 5317   7.580   6.467   4.959
 1330SOL    HW1 5318   7.574   6.560   4.981
 1330SOL    HW2 5319   7.623   6.427   5.035
 1330SOL     MW 5320   7.585   6.474   4.972
 1331SOL     OW 5321   1.271   1.226   2.326
 1331SOL    HW1 5322   1.187   1.246   2.369
 1331SOL    HW2 5323   1.306   1.312   2.301
 1331SOL     MW 5324   1.265   1.240   2.329
 1332SOL     OW 5325   5.516   1.370   6.671
 1332SOL    HW1 5326   5.596   1.415   6.695
 1332SOL    HW2 5327   5.537   1.277   6.678
 1332SOL     MW 5328   5.529   1.364   6.675
 1333SOL     OW 5329   9.984   3.945   1.649
 1333SOL    HW1 5330  10.008   4.016   1.589
 1333SOL    HW2 5331  10.003   3.979   1.736
 1333SOL     MW 5332   9.990   3.958   1.652
 1334SOL     OW 5333   8.697   0.721   3.634
 1334SOL    HW1 5334   8.742   0.779   3.573
 1334SOL    HW2 5335   8.766   0.666   3.671
 1334SOL     MW 5336   8.711   0.721   3.631
 1335SOL     OW 5337   0.342   1.070   1.349
 1335SOL    HW1 5338   0.262   1.028   1.319
 1335SOL    HW2 5339   0.376   1.011   1.417
 1335SOL     MW 5340   0.336   1.057   1.354
 1336SOL     OW 5341   5.083   8.518   0.367
 1336SOL    HW1 5342   5.159   8.577   0.361
 1336SOL    HW2 5343   5.056   8.523   0.458
 1336SOL     MW 5344   5.090   8.526   0.378
 1337SOL     OW 5345   6.679   4.387   7.481
 1337SOL    HW1 5346   6.596   4.402   7.434
 1337SOL    HW2 5347   6.723   4.320   7.429
 1337SOL     MW 5348   6.674   4.380   7.468
 1338SOL     OW 5349   0.289   8.506   7.474
 1338SOL    HW1 5350   0.207   8.507   7.424
 1338SOL    HW2 5351   0.277   8.438   7.540
 1338SOL     MW 5352   0.277   8.497   7.476
 1339SOL     OW 5353   0.916   9.314   9.818
 1339SOL    HW1 5354   0.984   9.351   9.762
 1339SOL    HW2 5355   0.963   9.263   9.884
 1339SOL     MW 5356   0.930   9.312   9.819
 1340SOL     OW 5357   5.526   5.202   2.041
 1340SOL    HW1 5358   5.447   5.249   2.067
 1340SOL    HW2 5359   5.578   5.267   1.994
 1340SOL     MW 5360   5.523   5.216   2.038
 1341SOL     OW 5361   1.938   9.721   4.537
 1341SOL    HW1 5362   2.003   9.666   4.582
 1341SOL    HW2 5363   1.854   9.681   4.559
 1341SOL     MW 5364   1.936   9.709   4.546
 1342SOL     OW 5365   5.113   8.637   2.576
 1342SOL    HW1 5366   5.141   8.593   2.656
 1342SOL    HW2 5367   5.180   8.704   2.561
 1342SOL     MW 5368   5.126   8.640   2.585
 1343SOL     OW 5369   1.109   9.423   9.649
 1343SOL    HW1 5370   1.202   9.446   9.648
 1343SOL    HW2 5371   1.071   9.468   9.574
 1343SOL     MW 5372   1.116   9.431   9.639
 1344SOL     OW 5373   7.177   8.921   8.329
 1344SOL    HW1 5374   7.105   8.884   8.380
 1344SOL    HW2 5375   7.141   8.932   8.241
 1344SOL     MW 5376   7.163   8.918   8.324
 1345SOL     OW 5377   6.121   9.429   2.627
 1345SOL    HW1 5378   6.158   9.498   2.682
 1345SOL    HW2 5379   6.169   9.435   2.544
 1345SOL     MW 5380   6.132   9.439   2.623
 1346SOL     OW 5381   5.107   8.025   7.918
 1346SOL    HW1 5382   5.127   8.117   7.935
 1346SOL    HW2 5383   5.178   7.995   7.861
 1346SOL     MW 5384   5.119   8.033   7.913
 1347SOL     OW 5385   1.199   6.131   4.173
 1347SOL    HW1 5386   1.281   6.166   4.139
 1347SOL    HW2 5387   1.179   6.186   4.249
 1347SOL     MW 5388   1.207   6.143   4.178
 1348SOL     OW 5389   6.688   6.370   0.156
 1348SOL    HW1 5390   6.767   6.334   0.116
 1348SOL    HW2 5391   6.657   6.435   0.093
 1348SOL     MW 5392   6.694   6.374   0.143
 1349SOL     OW 5393   0.245   7.422   7.526
 1349SOL    HW1 5394   0.207   7.356   7.468
 1349SOL    HW2 5395   0.323   7.380   7.562
 1349SOL     MW 5396   0.250   7.408   7.523
 1350SOL     OW 5397   4.849   1.422   5.609
 1350SOL    HW1 5398   4.911   1.447   5.540
 1350SOL    HW2 5399   4.893   1.353   5.658
 1350SOL     MW 5400   4.862   1.416   5.606
 1351SOL     OW 5401   9.074   3.337   3.543
 1351SOL    HW1 5402   9.101   3.252   3.508
 1351SOL    HW2 5403   9.056   3.391   3.466
 1351SOL     MW 5404   9.075   3.333   3.529
 1352SOL     OW 5405   4.115   7.633   6.599
 1352SOL    HW1 5406   4.048   7.674   6.655
 1352SOL    HW2 5407   4.188   7.694   6.600
 1352SOL     MW 5408   4.116   7.646   6.606
 1353SOL     OW 5409   5.321   1.712   3.090
 1353SOL    HW1 5410   5.375   1.636   3.069
 1353SOL    HW2 5411   5.254   1.677   3.149
 1353SOL     MW 5412   5.319   1.697   3.095
 1354SOL     OW 5413   0.511   6.599   9.261
 1354SOL    HW1 5414   0.471   6.636   9.340
 1354SOL    HW2 5415   0.603   6.589   9.284
 1354SOL     MW 5416   0.518   6.602   9.274
 1355SOL     OW 5417   4.816   3.465   3.230
 1355SOL    HW1 5418   4.749   3.485   3.165
 1355SOL    HW2 5419   4.791   3.516   3.307
 1355SOL     MW 5420   4.804   3.474   3.231
 1356SOL     OW 5421   8.704   1.384   4.125
 1356SOL    HW1 5422   8.614   1.370   4.154
 1356SOL    HW2 5423   8.702   1.363   4.031
 1356SOL     MW 5424   8.692   1.379   4.117
 1357SOL     OW 5425   4.072   1.822   4.918
 1357SOL    HW1 5426   4.019   1.877   4.976
 1357SOL    HW2 5427   4.051   1.733   4.945
 1357SOL     MW 5428   4.062   1.818   4.929
 1358SOL     OW 5429   5.156   6.980   5.143
 1358SOL    HW1 5430   5.089   6.958   5.078
 1358SOL    HW2 5431   5.212   6.902   5.146
 1358SOL     MW 5432   5.155   6.967   5.135
 1359SOL     OW 5433   9.424   2.325   4.802
 1359SOL    HW1 5434   9.401   2.250   4.858
 1359SOL    HW2 5435   9.387   2.401   4.847
 1359SOL     MW 5436   9.416   2.325   4.815
 1360SOL     OW 5437   3.354   8.208   1.790
 1360SOL    HW1 5438   3.271   8.179   1.827
 1360SOL    HW2 5439   3.385   8.275   1.851
 1360SOL     MW 5440   3.347   8.213   1.803
 1361SOL     OW 5441   3.704   0.056   8.017
 1361SOL    HW1 5442   3.706   0.122   8.085
 1361SOL    HW2 5443   3.611   0.035   8.007
 1361SOL     MW 5444   3.692   0.062   8.024
 1362SOL     OW 5445   1.693   2.822   5.659
 1362SOL    HW1 5446   1.720   2.897   5.605
 1362SOL    HW2 5447   1.662   2.862   5.741
 1362SOL     MW 5448   1.693   2.837   5.663
 1363SOL     OW 5449   6.076   2.328   2.804
 1363SOL    HW1 5450   6.171   2.319   2.811
 1363SOL    HW2 5451   6.057   2.414   2.841
 1363SOL     MW 5452   6.086   2.338   2.810
 1364SOL     OW 5453   8.099   3.079   2.570
 1364SOL    HW1 5454   8.182   3.038   2.544
 1364SOL    HW2 5455   8.122   3.170   2.589
 1364SOL     MW 5456   8.113   3.085   2.569
 1365SOL     OW 5457   2.829   9.710   7.708
 1365SOL    HW1 5458   2.747   9.742   7.746
 1365SOL    HW2 5459   2.811   9.702   7.614
 1365SOL     MW 5460   2.816   9.713   7.701
 1366SOL     OW 5461   7.753   5.264   8.019
 1366SOL    HW1 5462   7.779   5.318   7.945
 1366SOL    HW2 5463   7.776   5.315   8.096
 1366SOL     MW 5464   7.759   5.277   8.019
 1367SOL     OW 5465   4.990   4.198   4.958
 1367SOL    HW1 5466   4.906   4.184   5.002
 1367SOL    HW2 5467   4.996   4.126   4.896
 1367SOL     MW 5468   4.980   4.187   4.956
 1368SOL     OW 5469   4.242   9.812   1.792
 1368SOL    HW1 5470   4.250   9.794   1.885
 1368SOL    HW2 5471   4.197   9.897   1.787
 1368SOL     MW 5472   4.237   9.821   1.803
 1369SOL     OW 5473   3.417   3.300   1.847
 1369SOL    HW1 5474   3.473   3.375   1.828
 1369SOL    HW2 5475   3.477   3.230   1.872
 1369SOL     MW 5476   3.432   3.300   1.848
 1370SOL     OW 5477   7.786  10.029   2.970
 1370SOL    HW1 5478   7.853   9.991   3.027
 1370SOL    HW2 5479   7.732  10.082   3.029
 1370SOL     MW 5480   7.788  10.031   2.985
 1371SOL     OW 5481   3.648   2.766   5.163
 1371SOL    HW1 5482   3.703   2.707   5.110
 1371SOL    HW2 5483   3.641   2.722   5.248
 1371SOL     MW 5484   3.655   2.752   5.167
 1372SOL     OW 5485   9.188   8.336   4.234
 1372SOL    HW1 5486   9.185   8.265   4.299
 1372SOL    HW2 5487   9.273   8.327   4.192
 1372SOL     MW 5488   9.198   8.325   4.237
 1373SOL     OW 5489   8.898   6.454   5.753
 1373SOL    HW1 5490   8.975   6.430   5.701
 1373SOL    HW2 5491   8.926   6.443   5.843
 1373SOL     MW 5492   8.912   6.449   5.758
 1374SOL     OW 5493   1.303   1.750   2.420
 1374SOL    HW1 5494   1.382   1.798   2.394
 1374SOL    HW2 5495   1.318   1.727   2.512
 1374SOL     MW 5496   1.315   1.753   2.428
 1375SOL     OW 5497   4.466   8.532   1.601
 1375SOL    HW1 5498   4.521   8.607   1.583
 1375SOL    HW2 5499   4.527   8.463   1.628
 1375SOL     MW 5500   4.481   8.533   1.602
 1376SOL     OW 5501   3.027   6.552   5.241
 1376SOL    HW1 5502   2.983   6.530   5.159
 1376SOL    HW2 5503   3.046   6.468   5.282
 1376SOL     MW 5504   3.024   6.539   5.235
 1377SOL     OW 5505   4.570   0.778   2.010
 1377SOL    HW1 5506   4.643   0.734   2.054
 1377SOL    HW2 5507   4.606   0.806   1.926
 1377SOL     MW 5508   4.584   0.776   2.005
 1378SOL     OW 5509   1.086   0.025   0.100
 1378SOL    HW1 5510   1.099   0.116   0.074
 1378SOL    HW2 5511   1.158  -0.023   0.059
 1378SOL     MW 5512   1.097   0.030   0.092
 1379SOL     OW 5513   1.694   4.245   3.094
 1379SOL    HW1 5514   1.633   4.278   3.028
 1379SOL    HW2 5515   1.741   4.174   3.051
 1379SOL     MW 5516   1.692   4.240   3.080
 1380SOL     OW 5517   4.219   6.482   1.855
 1380SOL    HW1 5518   4.283   6.550   1.836
 1380SOL    HW2 5519   4.238   6.412   1.792
 1380SOL     MW 5520   4.230   6.482   1.845
 1381SOL     OW 5521   4.618   0.889   7.304
 1381SOL    HW1 5522   4.586   0.850   7.223
 1381SOL    HW2 5523   4.538   0.917   7.350
 1381SOL     MW 5524   4.603   0.888   7.300
 1382SOL     OW 5525   1.232   8.127   6.677
 1382SOL    HW1 5526   1.275   8.081   6.605
 1382SOL    HW2 5527   1.162   8.068   6.704
 1382SOL     MW 5528   1.228   8.114   6.671
 1383SOL     OW 5529   1.941   6.789   4.498
 1383SOL    HW1 5530   1.949   6.694   4.485
 1383SOL    HW2 5531   1.986   6.806   4.580
 1383SOL     MW 5532   1.948   6.779   4.507
 1384SOL     OW 5533   9.170   7.637   6.714
 1384SOL    HW1 5534   9.130   7.671   6.794
 1384SOL    HW2 5535   9.256   7.679   6.711
 1384SOL     MW 5536   9.176   7.647   6.724
 1385SOL     OW 5537   4.329   6.462   8.802
 1385SOL    HW1 5538   4.376   6.379   8.806
 1385SOL    HW2 5539   4.393   6.524   8.766
 1385SOL     MW 5540   4.343   6.459   8.798
 1386SOL     OW 5541   9.516   0.540   9.981
 1386SOL    HW1 5542   9.578   0.470   9.962
 1386SOL    HW2 5543   9.531   0.605   9.912
 1386SOL     MW 5544   9.526   0.540   9.970
 1387SOL     OW 5545   7.536   2.459   7.213
 1387SOL    HW1 5546   7.451   2.427   7.181
 1387SOL    HW2 5547   7.563   2.395   7.278
 1387SOL     MW 5548   7.528   2.447   7.217
 1388SOL     OW 5549   7.149   1.108   8.773
 1388SOL    HW1 5550   7.191   1.123   8.858
 1388SOL    HW2 5551   7.149   1.012   8.763
 1388SOL     MW 5552   7.154   1.097   8.783
 1389SOL     OW 5553   2.872   1.334   9.639
 1389SOL    HW1 5554   2.919   1.417   9.642
 1389SOL    HW2 5555   2.940   1.267   9.651
 1389SOL     MW 5556   2.887   1.336   9.641
 1390SOL     OW 5557   5.388   8.062   6.161
 1390SOL    HW1 5558   5.318   8.112   6.203
 1390SOL    HW2 5559   5.351   7.974   6.151
 1390SOL     MW 5560   5.374   8.057   6.165
 1391SOL     OW 5561   8.424   1.576   2.898
 1391SOL    HW1 5562   8.379   1.602   2.979
 1391SOL    HW2 5563   8.379   1.626   2.830
 1391SOL     MW 5564   8.412   1.586   2.900
 1392SOL     OW 5565   1.428   4.021   6.952
 1392SOL    HW1 5566   1.440   4.009   6.858
 1392SOL    HW2 5567   1.333   4.016   6.965
 1392SOL     MW 5568   1.418   4.019   6.942
 1393SOL     OW 5569   0.573   8.066   0.823
 1393SOL    HW1 5570   0.612   8.052   0.909
 1393SOL    HW2 5571   0.606   7.994   0.770
 1393SOL     MW 5572   0.582   8.055   0.827
 1394SOL     OW 5573   8.094   2.130   6.127
 1394SOL    HW1 5574   8.188   2.113   6.133
 1394SOL    HW2 5575   8.088   2.216   6.085
 1394SOL     MW 5576   8.105   2.139   6.122
 1395SOL     OW 5577   2.814   7.070   0.632
 1395SOL    HW1 5578   2.793   7.116   0.551
 1395SOL    HW2 5579   2.901   7.103   0.656
 1395SOL     MW 5580   2.823   7.080   0.625
 1396SOL     OW 5581   8.139   7.442   5.960
 1396SOL    HW1 5582   8.179   7.394   5.888
 1396SOL    HW2 5583   8.209   7.453   6.024
 1396SOL     MW 5584   8.153   7.437   5.959
 1397SOL     OW 5585   1.157   7.795   1.617
 1397SOL    HW1 5586   1.122   7.741   1.546
 1397SOL    HW2 5587   1.081   7.845   1.647
 1397SOL     MW 5588   1.143   7.795   1.612
 1398SOL     OW 5589   3.421   9.738   9.465
 1398SOL    HW1 5590   3.342   9.791   9.475
 1398SOL    HW2 5591   3.433   9.697   9.551
 1398SOL     MW 5592   3.412   9.740   9.477
 1399SOL     OW 5593   5.090   8.527   8.090
 1399SOL    HW1 5594   5.066   8.550   8.179
 1399SOL    HW2 5595   5.184   8.545   8.085
 1399SOL     MW 5596   5.099   8.532   8.101
 1400SOL     OW 5597   8.165   7.573   9.363
 1400SOL    HW1 5598   8.082   7.555   9.408
 1400SOL    HW2 5599   8.149   7.545   9.273
 1400SOL     MW 5600   8.152   7.567   9.358
 1401SOL     OW 5601   3.753   3.826   5.447
 1401SOL    HW1 5602   3.680   3.860   5.499
 1401SOL    HW2 5603   3.717   3.814   5.359
 1401SOL     MW 5604   3.739   3.829   5.442
 1402SOL     OW 5605   0.727   2.886   2.313
 1402SOL    HW1 5606   0.730   2.942   2.391
 1402SOL    HW2 5607   0.648   2.833   2.324
 1402SOL     MW 5608   0.717   2.887   2.324
 1403SOL     OW 5609   1.856   6.579   5.398
 1403SOL    HW1 5610   1.899   6.631   5.329
 1403SOL    HW2 5611   1.830   6.644   5.463
 1403SOL     MW 5612   1.858   6.594   5.397
 1404SOL     OW 5613   4.605   9.975   7.546
 1404SOL    HW1 5614   4.611  10.042   7.614
 1404SOL    HW2 5615   4.695   9.947   7.532
 1404SOL     MW 5616   4.618   9.980   7.553
 1405SOL     OW 5617   4.076   4.877   7.226
 1405SOL    HW1 5618   4.094   4.950   7.285
 1405SOL    HW2 5619   4.108   4.906   7.141
 1405SOL     MW 5620   4.082   4.890   7.223
 1406SOL     OW 5621   9.315   9.128   8.233
 1406SOL    HW1 5622   9.345   9.169   8.152
 1406SOL    HW2 5623   9.369   9.049   8.241
 1406SOL     MW 5624   9.326   9.123   8.224
 1407SOL     OW 5625   8.675   6.534   5.619
 1407SOL    HW1 5626   8.700   6.623   5.594
 1407SOL    HW2 5627   8.751   6.501   5.667
 1407SOL     MW 5628   8.688   6.541   5.622
 1408SOL     OW 5629   2.600   1.686   8.385
 1408SOL    HW1 5630   2.601   1.781   8.373
 1408SOL    HW2 5631   2.584   1.652   8.296
 1408SOL     MW 5632   2.598   1.694   8.372
 1409SOL     OW 5633   5.488   9.846   7.250
 1409SOL    HW1 5634   5.549   9.914   7.221
 1409SOL    HW2 5635   5.495   9.846   7.345
 1409SOL     MW 5636   5.497   9.855   7.258
 1410SOL     OW 5637   0.879   1.212   0.708
 1410SOL    HW1 5638   0.900   1.119   0.723
 1410SOL    HW2 5639   0.928   1.259   0.775
 1410SOL     MW 5640   0.888   1.206   0.718
 1411SOL     OW 5641   7.352   3.213   3.663
 1411SOL    HW1 5642   7.317   3.146   3.722
 1411SOL    HW2 5643   7.358   3.170   3.578
 1411SOL     MW 5644   7.348   3.199   3.660
 1412SOL     OW 5645   8.520   5.705   7.002
 1412SOL    HW1 5646   8.487   5.784   6.959
 1412SOL    HW2 5647   8.576   5.738   7.072
 1412SOL     MW 5648   8.523   5.720   7.005
 1413SOL     OW 5649   9.500   9.133   0.916
 1413SOL    HW1 5650   9.419   9.127   0.866
 1413SOL    HW2 5651   9.473   9.173   0.999
 1413SOL     MW 5652   9.486   9.138   0.920
 1414SOL     OW 5653   5.548   7.594   4.189
 1414SOL    HW1 5654   5.509   7.518   4.232
 1414SOL    HW2 5655   5.608   7.630   4.253
 1414SOL     MW 5656   5.551   7.589   4.203
 1415SOL     OW 5657   5.168  10.065   2.398
 1415SOL    HW1 5658   5.110  10.055   2.324
 1415SOL    HW2 5659   5.206  10.152   2.388
 1415SOL     MW 5660   5.166  10.075   2.388
 1416SOL     OW 5661   4.210   3.637   9.183
 1416SOL    HW1 5662   4.168   3.591   9.256
 1416SOL    HW2 5663   4.169   3.724   9.183
 1416SOL     MW 5664   4.199   3.643   9.192
 1417SOL     OW 5665   7.041   6.849   2.466
 1417SOL    HW1 5666   7.033   6.842   2.371
 1417SOL    HW2 5667   6.980   6.784   2.501
 1417SOL     MW 5668   7.032   6.840   2.459
 1418SOL     OW 5669   4.119   3.746   1.561
 1418SOL    HW1 5670   4.140   3.778   1.649
 1418SOL    HW2 5671   4.027   3.766   1.549
 1418SOL     MW 5672   4.110   3.752   1.571
 1419SOL     OW 5673   9.856  10.063   7.182
 1419SOL    HW1 5674   9.814  10.130   7.236
 1419SOL    HW2 5675   9.825   9.980   7.219
 1419SOL     MW 5676   9.847  10.061   7.193
 1420SOL     OW 5677   9.478   1.950   0.160
 1420SOL    HW1 5678   9.483   1.863   0.198
 1420SOL    HW2 5679   9.417   1.941   0.087
 1420SOL     MW 5680   9.471   1.938   0.156
 1421SOL     OW 5681   5.107   6.002   2.405
 1421SOL    HW1 5682   5.175   6.065   2.429
 1421SOL    HW2 5683   5.025   6.044   2.430
 1421SOL     MW 5684   5.105   6.015   2.411
 1422SOL     OW 5685   1.800   6.020   9.274
 1422SOL    HW1 5686   1.753   6.066   9.204
 1422SOL    HW2 5687   1.797   6.081   9.348
 1422SOL     MW 5688   1.793   6.034   9.274
 1423SOL     OW 5689   0.562   0.728   5.149
 1423SOL    HW1 5690   0.606   0.790   5.090
 1423SOL    HW2 5691   0.517   0.667   5.090
 1423SOL     MW 5692   0.562   0.728   5.134
 1424SOL     OW 5693  10.019   6.342   4.167
 1424SOL    HW1 5694   9.945   6.312   4.114
 1424SOL    HW2 5695  10.034   6.271   4.229
 1424SOL     MW 5696  10.011   6.329   4.168
 1425SOL     OW 5697   9.907   8.441   8.848
 1425SOL    HW1 5698   9.860   8.504   8.794
 1425SOL    HW2 5699   9.840   8.402   8.904
 1425SOL     MW 5700   9.893   8.444   8.848
 1426SOL     OW 5701   3.096   1.184   4.254
 1426SOL    HW1 5702   3.083   1.122   4.326
 1426SOL    HW2 5703   3.139   1.132   4.186
 1426SOL     MW 5704   3.100   1.169   4.254
 1427SOL     OW 5705   4.110  10.056   1.780
 1427SOL    HW1 5706   4.031  10.076   1.730
 1427SOL    HW2 5707   4.133  10.139   1.822
 1427SOL     MW 5708   4.103  10.069   1.779
 1428SOL     OW 5709   4.897   5.678   2.061
 1428SOL    HW1 5710   4.922   5.754   2.114
 1428SOL    HW2 5711   4.806   5.662   2.083
 1428SOL     MW 5712   4.889   5.685   2.071
 1429SOL     OW 5713   7.691   6.770   1.483
 1429SOL    HW1 5714   7.658   6.774   1.573
 1429SOL    HW2 5715   7.716   6.679   1.470
 1429SOL     MW 5716   7.690   6.759   1.493
 1430SOL     OW 5717   4.457   7.613   4.427
 1430SOL    HW1 5718   4.526   7.664   4.469
 1430SOL    HW2 5719   4.475   7.619   4.333
 1430SOL     MW 5720   4.468   7.620   4.421
 1431SOL     OW 5721   8.280   1.673   3.110
 1431SOL    HW1 5722   8.296   1.726   3.188
 1431SOL    HW2 5723   8.226   1.728   3.054
 1431SOL     MW 5724   8.275   1.687   3.112
 1432SOL     OW 5725   3.587   3.119   9.267
 1432SOL    HW1 5726   3.645   3.132   9.342
 1432SOL    HW2 5727   3.571   3.025   9.264
 1432SOL     MW 5728   3.592   3.109   9.276
 1433SOL     OW 5729   6.711   7.721   0.017
 1433SOL    HW1 5730   6.629   7.729   0.066
 1433SOL    HW2 5731   6.687   7.667  -0.059
 1433SOL     MW 5732   6.697   7.715   0.013
 1434SOL     OW 5733   5.185   0.428   0.342
 1434SOL    HW1 5734   5.124   0.500   0.327
 1434SOL    HW2 5735   5.269   0.460   0.309
 1434SOL     MW 5736   5.188   0.441   0.336
 1435SOL     OW 5737   0.869   0.357   2.972
 1435SOL    HW1 5738   0.889   0.316   3.056
 1435SOL    HW2 5739   0.773   0.356   2.967
 1435SOL     MW 5740   0.859   0.352   2.982
 1436SOL     OW 5741   9.668   0.679   2.241
 1436SOL    HW1 5742   9.626   0.636   2.166
 1436SOL    HW2 5743   9.669   0.772   2.218
 1436SOL     MW 5744   9.663   0.685   2.228
 1437SOL     OW 5745   2.683   3.833   1.007
 1437SOL    HW1 5746   2.652   3.778   1.079
 1437SOL    HW2 5747   2.700   3.773   0.935
 1437SOL     MW 5748   2.681   3.819   1.007
 1438SOL     OW 5749   5.810   1.605   6.488
 1438SOL    HW1 5750   5.860   1.672   6.442
 1438SOL    HW2 5751   5.733   1.591   6.432
 1438SOL     MW 5752   5.806   1.612   6.475
 1439SOL     OW 5753   8.021   8.457   5.070
 1439SOL    HW1 5754   8.092   8.454   5.006
 1439SOL    HW2 5755   8.051   8.401   5.142
 1439SOL     MW 5756   8.034   8.450   5.071
 1440SOL     OW 5757   4.667   9.985   5.668
 1440SOL    HW1 5758   4.667   9.949   5.579
 1440SOL    HW2 5759   4.601  10.055   5.664
 1440SOL     MW 5760   4.658   9.990   5.656
 1441SOL     OW 5761   5.181   1.289   5.918
 1441SOL    HW1 5762   5.133   1.277   5.836
 1441SOL    HW2 5763   5.121   1.337   5.975
 1441SOL     MW 5764   5.167   1.293   5.915
 1442SOL     OW 5765   3.134   5.238   1.309
 1442SOL    HW1 5766   3.224   5.235   1.342
 1442SOL    HW2 5767   3.135   5.182   1.231
 1442SOL     MW 5768   3.145   5.231   1.303
 1443SOL     OW 5769   7.705   0.833   3.292
 1443SOL    HW1 5770   7.747   0.776   3.356
 1443SOL    HW2 5771   7.614   0.838   3.320
 1443SOL     MW 5772   7.699   0.826   3.304
 1444SOL     OW 5773   4.391   1.595   2.356
 1444SOL    HW1 5774   4.324   1.663   2.353
 1444SOL    HW2 5775   4.473   1.642   2.339
 1444SOL     MW 5776   4.393   1.610   2.353
 1445SOL     OW 5777   0.638   6.237   4.833
 1445SOL    HW1 5778   0.587   6.275   4.762
 1445SOL    HW2 5779   0.574   6.217   4.901
 1445SOL     MW 5780   0.623   6.239   4.833
 1446SOL     OW 5781   9.145  -0.023   1.592
 1446SOL    HW1 5782   9.095   0.040   1.644
 1446SOL    HW2 5783   9.236   0.004   1.602
 1446SOL     MW 5784   9.150  -0.012   1.600
 1447SOL     OW 5785   2.628   5.428   2.870
 1447SOL    HW1 5786   2.569   5.353   2.865
 1447SOL    HW2 5787   2.680   5.423   2.789
 1447SOL     MW 5788   2.627   5.418   2.859
 1448SOL     OW 5789   4.674   6.967   6.302
 1448SOL    HW1 5790   4.709   7.038   6.248
 1448SOL    HW2 5791   4.727   6.970   6.382
 1448SOL     MW 5792   4.685   6.977   6.305
 1449SOL     OW 5793   5.657   7.122   9.243
 1449SOL    HW1 5794   5.654   7.073   9.325
 1449SOL    HW2 5795   5.729   7.185   9.256
 1449SOL     MW 5796   5.666   7.124   9.255
 1450SOL     OW 5797   7.635  10.115   2.487
 1450SOL    HW1 5798   7.610  10.034   2.443
 1450SOL    HW2 5799   7.680  10.087   2.566
 1450SOL     MW 5800   7.637  10.101   2.491
 1451SOL     OW 5801   2.982   3.474   4.662
 1451SOL    HW1 5802   2.900   3.438   4.695
 1451SOL    HW2 5803   2.973   3.471   4.567
 1451SOL     MW 5804   2.970   3.469   4.654
 1452SOL     OW 5805   2.844   8.053   0.664
 1452SOL    HW1 5806   2.833   8.107   0.742
 1452SOL    HW2 5807   2.756   8.018   0.646
 1452SOL     MW 5808   2.831   8.056   0.672
 1453SOL     OW 5809   3.382   5.881   0.785
 1453SOL    HW1 5810   3.416   5.866   0.873
 1453SOL    HW2 5811   3.388   5.976   0.773
 1453SOL     MW 5812   3.387   5.891   0.795
 1454SOL     OW 5813   2.386   3.161   9.086
 1454SOL    HW1 5814   2.455   3.225   9.103
 1454SOL    HW2 5815   2.430   3.077   9.092
 1454SOL     MW 5816   2.401   3.159   9.089
 1455SOL     OW 5817   1.962   9.879   9.575
 1455SOL    HW1 5818   2.029   9.873   9.506
 1455SOL    HW2 5819   1.917   9.961   9.557
 1455SOL     MW 5820   1.965   9.889   9.564
 1456SOL     OW 5821   7.955   7.836   1.693
 1456SOL    HW1 5822   7.946   7.919   1.646
 1456SOL    HW2 5823   7.991   7.860   1.779
 1456SOL     MW 5824   7.959   7.849   1.698
 1457SOL     OW 5825  -0.003   2.061   3.736
 1457SOL    HW1 5826   0.000   2.088   3.828
 1457SOL    HW2 5827   0.019   2.140   3.687
 1457SOL     MW 5828   0.000   2.075   3.741
 1458SOL     OW 5829   1.096   4.628   2.252
 1458SOL    HW1 5830   1.008   4.620   2.287
 1458SOL    HW2 5831   1.084   4.667   2.165
 1458SOL     MW 5832   1.083   4.632   2.245
 1459SOL     OW 5833   1.997   4.657   8.574
 1459SOL    HW1 5834   2.077   4.609   8.591
 1459SOL    HW2 5835   1.960   4.617   8.496
 1459SOL     MW 5836   2.002   4.646   8.566
 1460SOL     OW 5837   6.514  10.073   7.971
 1460SOL    HW1 5838   6.606  10.070   7.996
 1460SOL    HW2 5839   6.501  10.163   7.939
 1460SOL     MW 5840   6.524  10.084   7.970
 1461SOL     OW 5841   4.640   6.500   9.833
 1461SOL    HW1 5842   4.631   6.435   9.763
 1461SOL    HW2 5843   4.720   6.476   9.879
 1461SOL     MW 5844   4.649   6.489   9.830
 1462SOL     OW 5845   2.184   2.180   3.588
 1462SOL    HW1 5846   2.220   2.092   3.580
 1462SOL    HW2 5847   2.193   2.218   3.500
 1462SOL     MW 5848   2.190   2.174   3.576
 1463SOL     OW 5849   9.434   7.975   0.565
 1463SOL    HW1 5850   9.457   8.058   0.524
 1463SOL    HW2 5851   9.480   7.909   0.513
 1463SOL     MW 5852   9.443   7.977   0.553
 1464SOL     OW 5853   3.886   5.786   8.023
 1464SOL    HW1 5854   3.793   5.809   8.015
 1464SOL    HW2 5855   3.902   5.789   8.118
 1464SOL     MW 5856   3.876   5.790   8.034
 1465SOL     OW 5857   0.043   2.951   1.415
 1465SOL    HW1 5858   0.001   2.959   1.330
 1465SOL    HW2 5859   0.070   3.040   1.437
 1465SOL     MW 5860   0.041   2.963   1.407
 1466SOL     OW 5861   8.428   4.745   9.717
 1466SOL    HW1 5862   8.454   4.703   9.799
 1466SOL    HW2 5863   8.487   4.820   9.709
 1466SOL     MW 5864   8.439   4.749   9.727
 1467SOL     OW 5865   0.354   3.454   8.141
 1467SOL    HW1 5866   0.449   3.447   8.136
 1467SOL    HW2 5867   0.333   3.432   8.232
 1467SOL     MW 5868   0.363   3.450   8.152
 1468SOL     OW 5869   7.226   7.066   9.675
 1468SOL    HW1 5870   7.268   7.093   9.594
 1468SOL    HW2 5871   7.176   7.143   9.703
 1468SOL     MW 5872   7.225   7.080   9.669
 1469SOL     OW 5873   5.597   4.204   5.981
 1469SOL    HW1 5874   5.542   4.196   5.903
 1469SOL    HW2 5875   5.547   4.259   6.041
 1469SOL     MW 5876   5.584   4.210   5.979
 1470SOL     OW 5877   0.846   9.734   1.610
 1470SOL    HW1 5878   0.809   9.709   1.525
 1470SOL    HW2 5879   0.782   9.703   1.674
 1470SOL     MW 5880   0.833   9.726   1.608
 1471SOL     OW 5881   9.427   9.335   6.663
 1471SOL    HW1 5882   9.485   9.343   6.738
 1471SOL    HW2 5883   9.458   9.401   6.601
 1471SOL     MW 5884   9.438   9.344   6.664
 1472SOL     OW 5885   5.584  10.080   4.753
 1472SOL    HW1 5886   5.636  10.124   4.821
 1472SOL    HW2 5887   5.613  10.119   4.671
 1472SOL     MW 5888   5.594  10.091   4.752
 1473SOL     OW 5889   2.075   3.856   3.834
 1473SOL    HW1 5890   2.162   3.895   3.837
 1473SOL    HW2 5891   2.018   3.922   3.875
 1473SOL     MW 5892   2.079   3.869   3.840
 1474SOL     OW 5893   5.726   1.563  -0.010
 1474SOL    HW1 5894   5.712   1.572   0.084
 1474SOL    HW2 5895   5.638   1.571  -0.048
 1474SOL     MW 5896   5.713   1.565  -0.003
 1475SOL     OW 5897   9.795   8.281   7.479
 1475SOL    HW1 5898   9.866   8.253   7.537
 1475SOL    HW2 5899   9.733   8.325   7.537
 1475SOL     MW 5900   9.796   8.283   7.494
 1476SOL     OW 5901   4.971   8.200   1.464
 1476SOL    HW1 5902   4.997   8.292   1.462
 1476SOL    HW2 5903   5.045   8.155   1.506
 1476SOL     MW 5904   4.984   8.206   1.469
 1477SOL     OW 5905   7.342   6.020   5.993
 1477SOL    HW1 5906   7.282   6.090   5.966
 1477SOL    HW2 5907   7.385   6.054   6.072
 1477SOL     MW 5908   7.340   6.033   6.000
 1478SOL     OW 5909   3.142   2.020   7.898
 1478SOL    HW1 5910   3.181   1.933   7.896
 1478SOL    HW2 5911   3.077   2.019   7.828
 1478SOL     MW 5912   3.139   2.009   7.889
 1479SOL     OW 5913   5.416   8.625   0.087
 1479SOL    HW1 5914   5.488   8.659   0.035
 1479SOL    HW2 5915   5.455   8.557   0.142
 1479SOL     MW 5916   5.430   8.621   0.088
 1480SOL     OW 5917   5.173   8.190   6.276
 1480SOL    HW1 5918   5.127   8.259   6.229
 1480SOL    HW2 5919   5.127   8.184   6.360
 1480SOL     MW 5920   5.161   8.198   6.281
 1481SOL     OW 5921   0.931   2.149   4.895
 1481SOL    HW1 5922   1.000   2.132   4.831
 1481SOL    HW2 5923   0.936   2.243   4.911
 1481SOL     MW 5924   0.940   2.159   4.889
 1482SOL     OW 5925   7.090   4.119   0.557
 1482SOL    HW1 5926   7.013   4.173   0.539
 1482SOL    HW2 5927   7.060   4.054   0.620
 1482SOL     MW 5928   7.076   4.118   0.563
 1483SOL     OW 5929   3.846   3.514   9.778
 1483SOL    HW1 5930   3.853   3.504   9.873
 1483SOL    HW2 5931   3.930   3.553   9.752
 1483SOL     MW 5932   3.858   3.518   9.787
 1484SOL     OW 5933   9.166   5.496   9.635
 1484SOL    HW1 5934   9.162   5.585   9.670
 1484SOL    HW2 5935   9.242   5.457   9.678
 1484SOL     MW 5936   9.175   5.503   9.645
 1485SOL     OW 5937   2.827   6.320   9.049
 1485SOL    HW1 5938   2.753   6.314   9.108
 1485SOL    HW2 5939   2.894   6.366   9.100
 1485SOL     MW 5940   2.826   6.325   9.063
 1486SOL     OW 5941   9.681  10.036   6.138
 1486SOL    HW1 5942   9.708  10.090   6.213
 1486SOL    HW2 5943   9.675  10.098   6.065
 1486SOL     MW 5944   9.684  10.051   6.138
 1487SOL     OW 5945   6.487   7.674   4.379
 1487SOL    HW1 5946   6.427   7.619   4.430
 1487SOL    HW2 5947   6.533   7.612   4.321
 1487SOL     MW 5948   6.485   7.659   4.378
 1488SOL     OW 5949   7.492   2.121   4.304
 1488SOL    HW1 5950   7.450   2.108   4.219
 1488SOL    HW2 5951   7.493   2.034   4.344
 1488SOL     MW 5952   7.486   2.108   4.298
 1489SOL     OW 5953   4.781   8.590   1.031
 1489SOL    HW1 5954   4.706   8.619   1.083
 1489SOL    HW2 5955   4.792   8.498   1.055
 1489SOL     MW 5956   4.772   8.582   1.041
 1490SOL     OW 5957   9.122   5.359   4.872
 1490SOL    HW1 5958   9.151   5.305   4.798
 1490SOL    HW2 5959   9.093   5.441   4.832
 1490SOL     MW 5960   9.122   5.363   4.857
 1491SOL     OW 5961   9.251   9.255   4.980
 1491SOL    HW1 5962   9.262   9.167   5.017
 1491SOL    HW2 5963   9.263   9.243   4.886
 1491SOL     MW 5964   9.254   9.242   4.973
 1492SOL     OW 5965  10.116   6.700   6.395
 1492SOL    HW1 5966  10.085   6.768   6.454
 1492SOL    HW2 5967  10.038   6.670   6.349
 1492SOL     MW 5968  10.102   6.705   6.397
 1493SOL     OW 5969   4.918   0.008   3.977
 1493SOL    HW1 5970   4.977  -0.064   4.001
 1493SOL    HW2 5971   4.930   0.073   4.047
 1493SOL     MW 5972   4.927   0.007   3.989
 1494SOL     OW 5973   8.054   9.853   1.313
 1494SOL    HW1 5974   8.004   9.772   1.323
 1494SOL    HW2 5975   8.035   9.881   1.223
 1494SOL     MW 5976   8.045   9.846   1.302
 1495SOL     OW 5977   9.543   5.748   1.294
 1495SOL    HW1 5978   9.628   5.769   1.256
 1495SOL    HW2 5979   9.499   5.697   1.227
 1495SOL     MW 5980   9.548   5.744   1.281
 1496SOL     OW 5981   3.047   2.272   3.299
 1496SOL    HW1 5982   3.066   2.236   3.212
 1496SOL    HW2 5983   2.975   2.217   3.332
 1496SOL     MW 5984   3.040   2.260   3.292
 1497SOL     OW 5985   8.229  10.127   0.613
 1497SOL    HW1 5986   8.276  10.049   0.582
 1497SOL    HW2 5987   8.235  10.123   0.708
 1497SOL     MW 5988   8.235  10.116   0.621
 1498SOL     OW 5989   4.874   5.980   4.116
 1498SOL    HW1 5990   4.821   6.011   4.043
 1498SOL    HW2 5991   4.820   5.915   4.160
 1498SOL     MW 5992   4.860   5.976   4.112
 1499SOL     OW 5993   4.460   8.393   6.337
 1499SOL    HW1 5994   4.471   8.489   6.335
 1499SOL    HW2 5995   4.423   8.372   6.251
 1499SOL     MW 5996   4.457   8.403   6.326
 1500SOL     OW 5997   0.325  10.143   5.402
 1500SOL    HW1 5998   0.394  10.147   5.468
 1500SOL    HW2 5999   0.248  10.180   5.444
 1500SOL     MW 6000   0.324  10.149   5.416
 1501SOL     OW 6001   3.473   2.321   3.146
 1501SOL    HW1 6002   3.470   2.332   3.241
 1501SOL    HW2 6003   3.467   2.226   3.133
 1501SOL     MW 6004   3.472   2.310   3.157
 1502SOL     OW 6005   2.566   1.987   2.163
 1502SOL    HW1 6006   2.474   1.981   2.191
 1502SOL    HW2 6007   2.591   1.896   2.146
 1502SOL     MW 6008   2.557   1.975   2.164
 1503SOL     OW 6009   8.730   8.882   5.862
 1503SOL    HW1 6010   8.652   8.833   5.889
 1503SOL    HW2 6011   8.714   8.971   5.892
 1503SOL     MW 6012   8.718   8.887   5.869
 1504SOL     OW 6013   0.306   0.227   9.663
 1504SOL    HW1 6014   0.265   0.158   9.715
 1504SOL    HW2 6015   0.389   0.190   9.634
 1504SOL     MW 6016   0.311   0.214   9.666
 1505SOL     OW 6017   2.116   2.113   0.911
 1505SOL    HW1 6018   2.145   2.138   0.823
 1505SOL    HW2 6019   2.148   2.183   0.968
 1505SOL     MW 6020   2.124   2.125   0.907
 1506SOL     OW 6021   1.132   9.399   6.855
 1506SOL    HW1 6022   1.099   9.489   6.850
 1506SOL    HW2 6023   1.220   9.403   6.817
 1506SOL     MW 6024   1.139   9.411   6.849
 1507SOL     OW 6025  10.142   5.423   9.545
 1507SOL    HW1 6026  10.056   5.381   9.550
 1507SOL    HW2 6027  10.185   5.398   9.626
 1507SOL     MW 6028  10.136   5.414   9.556
 1508SOL     OW 6029   5.679   9.492   6.290
 1508SOL    HW1 6030   5.737   9.522   6.359
 1508SOL    HW2 6031   5.606   9.554   6.290
 1508SOL     MW 6032   5.677   9.504   6.299
 1509SOL     OW 6033   0.819   5.194   0.934
 1509SOL    HW1 6034   0.830   5.262   1.000
 1509SOL    HW2 6035   0.731   5.159   0.951
 1509SOL     MW 6036   0.809   5.198   0.945
 1510SOL     OW 6037   4.090  10.150   8.881
 1510SOL    HW1 6038   4.124  10.069   8.919
 1510SOL    HW2 6039   4.050  10.122   8.798
 1510SOL     MW 6040   4.089  10.136   8.875
 1511SOL     OW 6041   7.807   2.178   0.017
 1511SOL    HW1 6042   7.783   2.255   0.069
 1511SOL    HW2 6043   7.890   2.149   0.055
 1511SOL     MW 6044   7.814   2.184   0.029
 1512SOL     OW 6045   1.337   7.711   6.437
 1512SOL    HW1 6046   1.407   7.671   6.386
 1512SOL    HW2 6047   1.287   7.637   6.472
 1512SOL     MW 6048   1.340   7.696   6.435
 1513SOL     OW 6049  10.150   8.946   0.221
 1513SOL    HW1 6050  10.196   9.026   0.246
 1513SOL    HW2 6051  10.079   8.976   0.165
 1513SOL     MW 6052  10.147   8.960   0.217
 1514SOL     OW 6053   2.597   6.670   9.532
 1514SOL    HW1 6054   2.580   6.688   9.625
 1514SOL    HW2 6055   2.692   6.657   9.528
 1514SOL     MW 6056   2.607   6.670   9.544
 1515SOL     OW 6057   8.049   8.087   2.726
 1515SOL    HW1 6058   7.958   8.098   2.700
 1515SOL    HW2 6059   8.080   8.176   2.744
 1515SOL     MW 6060   8.041   8.100   2.725
 1516SOL     OW 6061   0.791   2.744   7.244
 1516SOL    HW1 6062   0.832   2.706   7.166
 1516SOL    HW2 6063   0.800   2.676   7.311
 1516SOL     MW 6064   0.798   2.730   7.242
 1517SOL     OW 6065   1.322   0.793   2.227
 1517SOL    HW1 6066   1.338   0.862   2.290
 1517SOL    HW2 6067   1.408   0.769   2.194
 1517SOL     MW 6068   1.335   0.799   2.230
 1518SOL     OW 6069   7.350   7.361   1.107
 1518SOL    HW1 6070   7.366   7.373   1.014
 1518SOL    HW2 6071   7.429   7.396   1.149
 1518SOL     MW 6072   7.362   7.367   1.101
 1519SOL     OW 6073   6.331   0.349   1.224
 1519SOL    HW1 6074   6.320   0.371   1.316
 1519SOL    HW2 6075   6.263   0.283   1.207
 1519SOL     MW 6076   6.321   0.343   1.233
 1520SOL     OW 6077   5.119   6.866   8.292
 1520SOL    HW1 6078   5.112   6.962   8.296
 1520SOL    HW2 6079   5.204   6.850   8.250
 1520SOL     MW 6080   5.129   6.877   8.287
 1521SOL     OW 6081   3.010  10.049   4.089
 1521SOL    HW1 6082   2.928  10.013   4.056
 1521SOL    HW2 6083   3.065  10.058   4.012
 1521SOL     MW 6084   3.007  10.045   4.075
 1522SOL     OW 6085   1.144   0.095   7.108
 1522SOL    HW1 6086   1.161   0.188   7.124
 1522SOL    HW2 6087   1.136   0.056   7.195
 1522SOL     MW 6088   1.145   0.102   7.121
 1523SOL     OW 6089   4.153   8.509   2.551
 1523SOL    HW1 6090   4.111   8.477   2.472
 1523SOL    HW2 6091   4.111   8.593   2.569
 1523SOL     MW 6092   4.142   8.515   2.543
 1524SOL     OW 6093   6.474   0.764   2.106
 1524SOL    HW1 6094   6.454   0.834   2.044
 1524SOL    HW2 6095   6.422   0.784   2.183
 1524SOL     MW 6096   6.465   0.775   2.108
 1525SOL     OW 6097   4.257   2.107   8.020
 1525SOL    HW1 6098   4.334   2.154   8.051
 1525SOL    HW2 6099   4.194   2.115   8.092
 1525SOL     MW 6100   4.258   2.114   8.033
 1526SOL     OW 6101   1.184   6.556   0.506
 1526SOL    HW1 6102   1.114   6.494   0.529
 1526SOL    HW2 6103   1.184   6.557   0.411
 1526SOL     MW 6104   1.175   6.548   0.497
 1527SOL     OW 6105   4.187   9.912   8.984
 1527SOL    HW1 6106   4.175   9.829   8.939
 1527SOL    HW2 6107   4.236   9.889   9.064
 1527SOL     MW 6108   4.192   9.899   8.989
 1528SOL     OW 6109   8.390   3.073   0.055
 1528SOL    HW1 6110   8.435   3.022   0.123
 1528SOL    HW2 6111   8.388   3.014  -0.020
 1528SOL     MW 6112   8.396   3.059   0.054
 1529SOL     OW 6113   7.706   7.489   7.567
 1529SOL    HW1 6114   7.769   7.470   7.498
 1529SOL    HW2 6115   7.621   7.489   7.522
 1529SOL     MW 6116   7.703   7.487   7.552
 1530SOL     OW 6117   4.708   4.040   4.355
 1530SOL    HW1 6118   4.652   4.092   4.413
 1530SOL    HW2 6119   4.706   4.087   4.272
 1530SOL     MW 6120   4.701   4.052   4.352
 1531SOL     OW 6121   9.153   2.040   3.691
 1531SOL    HW1 6122   9.095   2.039   3.615
 1531SOL    HW2 6123   9.095   2.050   3.766
 1531SOL     MW 6124   9.139   2.041   3.691
 1532SOL     OW 6125   3.298   7.967  10.077
 1532SOL    HW1 6126   3.363   8.037  10.083
 1532SOL    HW2 6127   3.260   7.978   9.989
 1532SOL     MW 6128   3.301   7.978  10.066
 1533SOL     OW 6129   4.189   7.165   6.592
 1533SOL    HW1 6130   4.284   7.165   6.588
 1533SOL    HW2 6131   4.163   7.250   6.556
 1533SOL     MW 6132   4.198   7.176   6.587
 1534SOL     OW 6133   2.723   3.169  10.014
 1534SOL    HW1 6134   2.747   3.086  10.056
 1534SOL    HW2 6135   2.780   3.174   9.937
 1534SOL     MW 6136   2.733   3.159  10.010
 1535SOL     OW 6137  10.120   4.271   4.957
 1535SOL    HW1 6138  10.151   4.351   4.999
 1535SOL    HW2 6139  10.145   4.201   5.017
 1535SOL     MW 6140  10.127   4.273   4.970
 1536SOL     OW 6141   7.279   1.750   1.328
 1536SOL    HW1 6142   7.265   1.672   1.382
 1536SOL    HW2 6143   7.316   1.814   1.389
 1536SOL     MW 6144   7.282   1.748   1.343
 1537SOL     OW 6145   9.225   9.713   5.194
 1537SOL    HW1 6146   9.204   9.622   5.172
 1537SOL    HW2 6147   9.214   9.761   5.112
 1537SOL     MW 6148   9.221   9.708   5.181
 1538SOL     OW 6149   9.256   0.983   7.935
 1538SOL    HW1 6150   9.201   0.972   8.012
 1538SOL    HW2 6151   9.266   1.078   7.926
 1538SOL     MW 6152   9.251   0.994   7.943
 1539SOL     OW 6153   4.109   7.396   6.460
 1539SOL    HW1 6154   4.159   7.424   6.383
 1539SOL    HW2 6155   4.102   7.475   6.514
 1539SOL     MW 6156   4.114   7.410   6.457
 1540SOL     OW 6157   2.061   0.817   0.196
 1540SOL    HW1 6158   2.059   0.876   0.121
 1540SOL    HW2 6159   2.146   0.834   0.238
 1540SOL     MW 6160   2.072   0.826   0.192
 1541SOL     OW 6161   9.807   2.799   7.176
 1541SOL    HW1 6162   9.839   2.880   7.135
 1541SOL    HW2 6163   9.725   2.825   7.218
 1541SOL     MW 6164   9.800   2.813   7.176
 1542SOL     OW 6165   3.656   5.145   2.334
 1542SOL    HW1 6166   3.680   5.127   2.425
 1542SOL    HW2 6167   3.726   5.201   2.302
 1542SOL     MW 6168   3.668   5.150   2.342
 1543SOL     OW 6169   9.073   6.957   7.951
 1543SOL    HW1 6170   9.031   6.917   8.027
 1543SOL    HW2 6171   9.015   7.029   7.926
 1543SOL     MW 6172   9.061   6.961   7.958
 1544SOL     OW 6173   0.699   0.763   9.929
 1544SOL    HW1 6174   0.628   0.698   9.927
 1544SOL    HW2 6175   0.743   0.753   9.844
 1544SOL     MW 6176   0.695   0.753   9.918
 1545SOL     OW 6177   8.807   2.919   6.554
 1545SOL    HW1 6178   8.716   2.934   6.529
 1545SOL    HW2 6179   8.822   2.980   6.626
 1545SOL     MW 6180   8.797   2.928   6.560
 1546SOL     OW 6181   1.463   8.199   7.055
 1546SOL    HW1 6182   1.468   8.141   7.131
 1546SOL    HW2 6183   1.542   8.253   7.060
 1546SOL     MW 6184   1.474   8.198   7.065
 1547SOL     OW 6185   7.993   9.940  10.089
 1547SOL    HW1 6186   7.965  10.030  10.105
 1547SOL    HW2 6187   8.044   9.916  10.167
 1547SOL     MW 6188   7.996   9.948  10.101
 1548SOL     OW 6189   6.951   9.632   1.185
 1548SOL    HW1 6190   6.946   9.675   1.100
 1548SOL    HW2 6191   6.909   9.694   1.245
 1548SOL     MW 6192   6.945   9.645   1.182
 1549SOL     OW 6193   5.182   3.931   0.943
 1549SOL    HW1 6194   5.141   3.950   1.027
 1549SOL    HW2 6195   5.265   3.979   0.945
 1549SOL     MW 6196   5.187   3.940   0.954
 1550SOL     OW 6197   9.571   7.793   0.410
 1550SOL    HW1 6198   9.550   7.763   0.322
 1550SOL    HW2 6199   9.637   7.731   0.441
 1550SOL     MW 6200   9.577   7.781   0.403
 1551SOL     OW 6201   7.113   0.147   1.336
 1551SOL    HW1 6202   7.099   0.209   1.264
 1551SOL    HW2 6203   7.202   0.165   1.366
 1551SOL     MW 6204   7.123   0.157   1.330
 1552SOL     OW 6205   1.311   4.555   2.413
 1552SOL    HW1 6206   1.238   4.581   2.357
 1552SOL    HW2 6207   1.381   4.532   2.352
 1552SOL     MW 6208   1.310   4.555   2.398
 1553SOL     OW 6209   6.865   7.508   0.100
 1553SOL    HW1 6210   6.921   7.526   0.175
 1553SOL    HW2 6211   6.819   7.590   0.084
 1553SOL     MW 6212   6.866   7.520   0.107
 1554SOL     OW 6213   3.834   4.542   4.858
 1554SOL    HW1 6214   3.869   4.509   4.776
 1554SOL    HW2 6215   3.758   4.486   4.876
 1554SOL     MW 6216   3.828   4.531   4.850
 1555SOL     OW 6217   1.207   8.645   4.597
 1555SOL    HW1 6218   1.172   8.734   4.597
 1555SOL    HW2 6219   1.270   8.644   4.524
 1555SOL     MW 6220   1.211   8.656   4.587
 1556SOL     OW 6221   0.366   1.320   2.463
 1556SOL    HW1 6222   0.305   1.369   2.408
 1556SOL    HW2 6223   0.343   1.345   2.552
 1556SOL     MW 6224   0.355   1.329   2.467
 1557SOL     OW 6225   7.643   3.797   1.405
 1557SOL    HW1 6226   7.571   3.835   1.455
 1557SOL    HW2 6227   7.702   3.761   1.472
 1557SOL     MW 6228   7.641   3.798   1.420
 1558SOL     OW 6229   5.956   5.675   4.668
 1558SOL    HW1 6230   6.001   5.760   4.671
 1558SOL    HW2 6231   5.985   5.630   4.747
 1558SOL     MW 6232   5.965   5.680   4.678
 1559SOL     OW 6233   2.275   8.420   3.739
 1559SOL    HW1 6234   2.266   8.472   3.818
 1559SOL    HW2 6235   2.367   8.393   3.739
 1559SOL     MW 6236   2.286   8.423   3.749
 1560SOL     OW 6237   8.671   9.837   4.252
 1560SOL    HW1 6238   8.610   9.820   4.323
 1560SOL    HW2 6239   8.710   9.751   4.233
 1560SOL     MW 6240   8.668   9.823   4.258
 1561SOL     OW 6241   6.369   2.740   8.639
 1561SOL    HW1 6242   6.457   2.774   8.625
 1561SOL    HW2 6243   6.358   2.673   8.571
 1561SOL     MW 6244   6.379   2.736   8.629
 1562SOL     OW 6245   9.211   2.550   2.950
 1562SOL    HW1 6246   9.219   2.516   3.039
 1562SOL    HW2 6247   9.149   2.623   2.958
 1562SOL     MW 6248   9.204   2.555   2.963
 1563SOL     OW 6249   7.093   8.641  10.032
 1563SOL    HW1 6250   7.064   8.564  10.082
 1563SOL    HW2 6251   7.153   8.605   9.967
 1563SOL     MW 6252   7.097   8.626  10.030
 1564SOL     OW 6253   2.193   9.536   7.890
 1564SOL    HW1 6254   2.251   9.524   7.815
 1564SOL    HW2 6255   2.237   9.603   7.943
 1564SOL     MW 6256   2.206   9.543   7.887
 1565SOL     OW 6257   1.455   7.877   5.402
 1565SOL    HW1 6258   1.520   7.938   5.436
 1565SOL    HW2 6259   1.455   7.805   5.466
 1565SOL     MW 6260   1.463   7.875   5.415
 1566SOL     OW 6261   6.165   0.128   1.188
 1566SOL    HW1 6262   6.164   0.090   1.276
 1566SOL    HW2 6263   6.073   0.132   1.162
 1566SOL     MW 6264   6.153   0.124   1.196
 1567SOL     OW 6265   5.345   1.132   2.262
 1567SOL    HW1 6266   5.285   1.105   2.331
 1567SOL    HW2 6267   5.398   1.054   2.244
 1567SOL     MW 6268   5.344   1.119   2.269
 1568SOL     OW 6269   3.745   4.617   9.164
 1568SOL    HW1 6270   3.828   4.583   9.198
 1568SOL    HW2 6271   3.763   4.708   9.143
 1568SOL     MW 6272   3.758   4.624   9.165
 1569SOL     OW 6273   1.563   0.797   6.818
 1569SOL    HW1 6274   1.657   0.804   6.801
 1569SOL    HW2 6275   1.531   0.887   6.815
 1569SOL     MW 6276   1.571   0.809   6.816
 1570SOL     OW 6277   9.088   3.720   6.786
 1570SOL    HW1 6278   9.143   3.787   6.827
 1570SOL    HW2 6279   9.006   3.723   6.837
 1570SOL     MW 6280   9.084   3.729   6.798
 1571SOL     OW 6281   1.844   3.609   7.662
 1571SOL    HW1 6282   1.781   3.665   7.617
 1571SOL    HW2 6283   1.835   3.631   7.755
 1571SOL     MW 6284   1.835   3.619   7.669
 1572SOL     OW 6285   6.823   4.646   9.589
 1572SOL    HW1 6286   6.766   4.723   9.597
 1572SOL    HW2 6287   6.901   4.680   9.545
 1572SOL     MW 6288   6.825   4.660   9.584
 1573SOL     OW 6289   5.022   8.588   8.347
 1573SOL    HW1 6290   4.994   8.522   8.412
 1573SOL    HW2 6291   4.970   8.666   8.369
 1573SOL     MW 6292   5.012   8.590   8.358
 1574SOL     OW 6293   8.346   5.537   7.122
 1574SOL    HW1 6294   8.409   5.590   7.074
 1574SOL    HW2 6295   8.262   5.556   7.080
 1574SOL     MW 6296   8.343   5.546   7.111
 1575SOL     OW 6297   9.238   0.346   8.804
 1575SOL    HW1 6298   9.233   0.251   8.819
 1575SOL    HW2 6299   9.249   0.355   8.710
 1575SOL     MW 6300   9.239   0.335   8.794
 1576SOL     OW 6301   5.118   5.865   3.248
 1576SOL    HW1 6302   5.152   5.779   3.272
 1576SOL    HW2 6303   5.144   5.877   3.157
 1576SOL     MW 6304   5.126   5.856   3.240
 1577SOL     OW 6305   1.086   5.350   6.547
 1577SOL    HW1 6306   1.175   5.383   6.552
 1577SOL    HW2 6307   1.053   5.353   6.637
 1577SOL     MW 6308   1.093   5.354   6.559
 1578SOL     OW 6309   2.455   4.211   3.863
 1578SOL    HW1 6310   2.530   4.269   3.848
 1578SOL    HW2 6311   2.480   4.159   3.938
 1578SOL     MW 6312   2.468   4.212   3.870
 1579SOL     OW 6313   6.599   0.316   9.079
 1579SOL    HW1 6314   6.625   0.335   9.169
 1579SOL    HW2 6315   6.631   0.391   9.029
 1579SOL     MW 6316   6.607   0.328   9.084
 1580SOL     OW 6317   6.635   4.669   3.893
 1580SOL    HW1 6318   6.573   4.598   3.880
 1580SOL    HW2 6319   6.711   4.627   3.935
 1580SOL     MW 6320   6.637   4.655   3.897
 1581SOL     OW 6321   0.146   5.812   8.400
 1581SOL    HW1 6322   0.180   5.742   8.456
 1581SOL    HW2 6323   0.054   5.819   8.423
 1581SOL     MW 6324   0.139   5.804   8.410
 1582SOL     OW 6325   9.757   8.805   3.942
 1582SOL    HW1 6326   9.700   8.865   3.990
 1582SOL    HW2 6327   9.839   8.853   3.932
 1582SOL     MW 6328   9.761   8.819   3.947
 1583SOL     OW 6329   2.833   7.533   7.531
 1583SOL    HW1 6330   2.913   7.499   7.569
 1583SOL    HW2 6331   2.814   7.475   7.458
 1583SOL     MW 6332   2.841   7.521   7.526
 1584SOL     OW 6333   5.812   1.760   3.372
 1584SOL    HW1 6334   5.813   1.803   3.286
 1584SOL    HW2 6335   5.818   1.831   3.435
 1584SOL     MW 6336   5.813   1.774   3.369
 1585SOL     OW 6337   1.627   1.050   2.484
 1585SOL    HW1 6338   1.628   1.028   2.577
 1585SOL    HW2 6339   1.538   1.029   2.455
 1585SOL     MW 6340   1.616   1.044   2.492
 1586SOL     OW 6341   8.919   1.520   4.228
 1586SOL    HW1 6342   8.883   1.608   4.233
 1586SOL    HW2 6343   8.846   1.466   4.197
 1586SOL     MW 6344   8.905   1.524   4.224
 1587SOL     OW 6345   7.959   7.914   7.194
 1587SOL    HW1 6346   7.889   7.872   7.144
 1587SOL    HW2 6347   8.037   7.863   7.171
 1587SOL     MW 6348   7.960   7.902   7.184
 1588SOL     OW 6349   9.135   7.965   9.416
 1588SOL    HW1 6350   9.221   8.000   9.437
 1588SOL    HW2 6351   9.117   7.997   9.328
 1588SOL     MW 6352   9.143   7.974   9.408
 1589SOL     OW 6353   2.193   4.117   9.409
 1589SOL    HW1 6354   2.098   4.122   9.417
 1589SOL    HW2 6355   2.221   4.207   9.393
 1589SOL     MW 6356   2.184   4.129   9.408
 1590SOL     OW 6357   5.497   4.745   4.797
 1590SOL    HW1 6358   5.557   4.681   4.836
 1590SOL    HW2 6359   5.410   4.715   4.823
 1590SOL     MW 6360   5.494   4.733   4.805
 1591SOL     OW 6361  10.004   2.744   1.400
 1591SOL    HW1 6362  10.034   2.664   1.358
 1591SOL    HW2 6363  10.085   2.787   1.429
 1591SOL     MW 6364  10.018   2.740   1.398
 1592SOL     OW 6365   7.219   3.142   5.165
 1592SOL    HW1 6366   7.306   3.124   5.199
 1592SOL    HW2 6367   7.161   3.137   5.242
 1592SOL     MW 6368   7.223   3.139   5.179
 1593SOL     OW 6369   5.382   3.755   4.471
 1593SOL    HW1 6370   5.289   3.734   4.477
 1593SOL    HW2 6371   5.404   3.740   4.379
 1593SOL     MW 6372   5.373   3.750   4.460
 1594SOL     OW 6373  10.033   4.003   8.424
 1594SOL    HW1 6374   9.995   3.979   8.509
 1594SOL    HW2 6375   9.976   3.962   8.360
 1594SOL     MW 6376  10.021   3.995   8.427
 1595SOL     OW 6377   7.556   4.055   1.840
 1595SOL    HW1 6378   7.616   4.127   1.823
 1595SOL    HW2 6379   7.485   4.093   1.892
 1595SOL     MW 6380   7.554   4.069   1.845
 1596SOL     OW 6381   3.208  10.042   4.527
 1596SOL    HW1 6382   3.174  10.122   4.566
 1596SOL    HW2 6383   3.292  10.028   4.571
 1596SOL     MW 6384   3.214  10.050   4.538
 1597SOL     OW 6385   7.558   3.960   6.104
 1597SOL    HW1 6386   7.544   3.935   6.195
 1597SOL    HW2 6387   7.502   3.901   6.054
 1597SOL     MW 6388   7.549   3.949   6.109
 1598SOL     OW 6389   5.148   1.147   1.340
 1598SOL    HW1 6390   5.187   1.229   1.372
 1598SOL    HW2 6391   5.055   1.154   1.364
 1598SOL     MW 6392   5.141   1.159   1.347
 1599SOL     OW 6393   7.909   7.376   7.415
 1599SOL    HW1 6394   7.996   7.366   7.375
 1599SOL    HW2 6395   7.913   7.327   7.496
 1599SOL     MW 6396   7.920   7.369   7.420
 1600SOL     OW 6397   0.546   8.998   9.980
 1600SOL    HW1 6398   0.596   9.080   9.977
 1600SOL    HW2 6399   0.563   8.957   9.895
 1600SOL     MW 6400   0.555   9.003   9.969
 1601SOL     OW 6401   1.182   0.165   7.569
 1601SOL    HW1 6402   1.116   0.182   7.636
 1601SOL    HW2 6403   1.261   0.209   7.602
 1601SOL     MW 6404   1.184   0.173   7.582
 1602SOL     OW 6405   1.465   1.300   9.682
 1602SOL    HW1 6406   1.480   1.348   9.601
 1602SOL    HW2 6407   1.412   1.224   9.656
 1602SOL     MW 6408   1.460   1.297   9.668
 1603SOL     OW 6409  10.135   9.668   6.092
 1603SOL    HW1 6410  10.050   9.712   6.097
 1603SOL    HW2 6411  10.114   9.577   6.070
 1603SOL     MW 6412  10.122   9.662   6.090
 1604SOL     OW 6413   9.521   3.581   8.120
 1604SOL    HW1 6414   9.463   3.522   8.168
 1604SOL    HW2 6415   9.462   3.642   8.075
 1604SOL     MW 6416   9.506   3.581   8.120
 1605SOL     OW 6417   4.133   5.723   0.906
 1605SOL    HW1 6418   4.144   5.628   0.912
 1605SOL    HW2 6419   4.212   5.759   0.945
 1605SOL     MW 6420   4.145   5.715   0.911
 1606SOL     OW 6421   7.932   8.795   0.655
 1606SOL    HW1 6422   7.840   8.824   0.654
 1606SOL    HW2 6423   7.947   8.762   0.566
 1606SOL     MW 6424   7.922   8.795   0.643
 1607SOL     OW 6425   6.235   7.128   0.661
 1607SOL    HW1 6426   6.246   7.201   0.722
 1607SOL    HW2 6427   6.229   7.169   0.575
 1607SOL     MW 6428   6.236   7.142   0.658
 1608SOL     OW 6429   2.129   9.834   2.858
 1608SOL    HW1 6430   2.121   9.819   2.763
 1608SOL    HW2 6431   2.129   9.746   2.896
 1608SOL     MW 6432   2.128   9.821   2.850
 1609SOL     OW 6433   3.953  10.092   8.652
 1609SOL    HW1 6434   3.876  10.147   8.669
 1609SOL    HW2 6435   3.992  10.129   8.572
 1609SOL     MW 6436   3.949  10.104   8.644
 1610SOL     OW 6437   8.429   9.557   1.299
 1610SOL    HW1 6438   8.444   9.526   1.388
 1610SOL    HW2 6439   8.444   9.481   1.244
 1610SOL     MW 6440   8.433   9.543   1.303
 1611SOL     OW 6441   7.721   5.860   4.340
 1611SOL    HW1 6442   7.693   5.811   4.263
 1611SOL    HW2 6443   7.651   5.846   4.404
 1611SOL     MW 6444   7.708   5.852   4.339
 1612SOL     OW 6445   0.708   2.132   5.060
 1612SOL    HW1 6446   0.782   2.114   5.001
 1612SOL    HW2 6447   0.707   2.227   5.069
 1612SOL     MW 6448   0.718   2.142   5.053
 1613SOL     OW 6449   0.973   6.576   9.538
 1613SOL    HW1 6450   1.012   6.662   9.552
 1613SOL    HW2 6451   0.997   6.526   9.615
 1613SOL     MW 6452   0.981   6.581   9.549
 1614SOL     OW 6453   7.855   2.756   8.410
 1614SOL    HW1 6454   7.931   2.739   8.356
 1614SOL    HW2 6455   7.815   2.670   8.424
 1614SOL     MW 6456   7.859   2.743   8.405
 1615SOL     OW 6457   1.198   6.446   1.258
 1615SOL    HW1 6458   1.186   6.361   1.215
 1615SOL    HW2 6459   1.200   6.426   1.351
 1615SOL     MW 6460   1.197   6.433   1.264
 1616SOL     OW 6461   6.836   2.074   5.101
 1616SOL    HW1 6462   6.784   1.995   5.112
 1616SOL    HW2 6463   6.775   2.139   5.066
 1616SOL     MW 6464   6.822   2.072   5.098
 1617SOL     OW 6465   5.806   1.820   3.100
 1617SOL    HW1 6466   5.761   1.867   3.030
 1617SOL    HW2 6467   5.764   1.734   3.102
 1617SOL     MW 6468   5.795   1.815   3.092
 1618SOL     OW 6469   8.902   4.750   7.095
 1618SOL    HW1 6470   8.819   4.725   7.054
 1618SOL    HW2 6471   8.969   4.704   7.045
 1618SOL     MW 6472   8.900   4.741   7.084
 1619SOL     OW 6473   7.042   1.523   6.155
 1619SOL    HW1 6474   6.952   1.548   6.133
 1619SOL    HW2 6475   7.093   1.551   6.079
 1619SOL     MW 6476   7.037   1.530   6.142
 1620SOL     OW 6477   2.513   6.928   3.727
 1620SOL    HW1 6478   2.457   6.917   3.650
 1620SOL    HW2 6479   2.539   7.020   3.724
 1620SOL     MW 6480   2.509   6.938   3.717
 1621SOL     OW 6481   7.975   2.797   4.960
 1621SOL    HW1 6482   8.023   2.880   4.967
 1621SOL    HW2 6483   8.024   2.747   4.895
 1621SOL     MW 6484   7.987   2.801   4.952
 1622SOL     OW 6485   5.528   1.431   5.537
 1622SOL    HW1 6486   5.499   1.420   5.628
 1622SOL    HW2 6487   5.451   1.465   5.491
 1622SOL     MW 6488   5.515   1.434   5.543
 1623SOL     OW 6489   3.189   5.555   9.338
 1623SOL    HW1 6490   3.192   5.536   9.245
 1623SOL    HW2 6491   3.233   5.639   9.348
 1623SOL     MW 6492   3.195   5.563   9.328
 1624SOL     OW 6493   1.731   5.258   0.638
 1624SOL    HW1 6494   1.681   5.311   0.577
 1624SOL    HW2 6495   1.823   5.279   0.619
 1624SOL     MW 6496   1.737   5.267   0.628
 1625SOL     OW 6497   2.510   9.422   1.476
 1625SOL    HW1 6498   2.473   9.507   1.500
 1625SOL    HW2 6499   2.440   9.377   1.428
 1625SOL     MW 6500   2.497   9.427   1.473
 1626SOL     OW 6501   5.128   9.968   0.120
 1626SOL    HW1 6502   5.210   9.975   0.169
 1626SOL    HW2 6503   5.084  10.051   0.133
 1626SOL     MW 6504   5.133   9.979   0.128
 1627SOL     OW 6505   4.780   1.551   6.057
 1627SOL    HW1 6506   4.872   1.526   6.052
 1627SOL    HW2 6507   4.750   1.551   5.966
 1627SOL     MW 6508   4.788   1.548   6.045
 1628SOL     OW 6509   7.522   5.822   4.526
 1628SOL    HW1 6510   7.449   5.880   4.547
 1628SOL    HW2 6511   7.531   5.766   4.603
 1628SOL     MW 6512   7.513   5.822   4.538
 1629SOL     OW 6513   4.025   1.102   2.145
 1629SOL    HW1 6514   4.114   1.120   2.114
 1629SOL    HW2 6515   4.030   1.012   2.179
 1629SOL     MW 6516   4.037   1.093   2.146
 1630SOL     OW 6517   9.962   5.742   8.998
 1630SOL    HW1 6518   9.925   5.824   9.031
 1630SOL    HW2 6519   9.994   5.764   8.911
 1630SOL     MW 6520   9.961   5.756   8.991
 1631SOL     OW 6521   4.764   3.442   3.678
 1631SOL    HW1 6522   4.821   3.490   3.739
 1631SOL    HW2 6523   4.696   3.404   3.734
 1631SOL     MW 6524   4.762   3.444   3.693
 1632SOL     OW 6525   4.446   1.079   0.491
 1632SOL    HW1 6526   4.463   1.057   0.582
 1632SOL    HW2 6527   4.354   1.105   0.489
 1632SOL     MW 6528   4.436   1.080   0.502
 1633SOL     OW 6529   6.699   4.439   2.318
 1633SOL    HW1 6530   6.773   4.493   2.290
 1633SOL    HW2 6531   6.677   4.473   2.405
 1633SOL     MW 6532   6.706   4.451   2.325
 1634SOL     OW 6533   0.240   6.466   8.976
 1634SOL    HW1 6534   0.279   6.451   8.890
 1634SOL    HW2 6535   0.300   6.423   9.037
 1634SOL     MW 6536   0.253   6.458   8.973
 1635SOL     OW 6537   7.639   0.623   5.108
 1635SOL    HW1 6538   7.626   0.567   5.031
 1635SOL    HW2 6539   7.733   0.622   5.123
 1635SOL     MW 6540   7.649   0.616   5.100
 1636SOL     OW 6541   3.219   6.733   5.321
 1636SOL    HW1 6542   3.156   6.669   5.287
 1636SOL    HW2 6543   3.166   6.806   5.350
 1636SOL     MW 6544   3.204   6.734   5.320
 1637SOL     OW 6545   6.870   0.293   9.742
 1637SOL    HW1 6546   6.844   0.269   9.652
 1637SOL    HW2 6547   6.960   0.323   9.733
 1637SOL     MW 6548   6.878   0.294   9.729
 1638SOL     OW 6549   3.566   6.707   2.330
 1638SOL    HW1 6550   3.484   6.748   2.359
 1638SOL    HW2 6551   3.634   6.768   2.358
 1638SOL     MW 6552   3.564   6.720   2.338
 1639SOL     OW 6553   3.994   2.939   1.064
 1639SOL    HW1 6554   4.024   2.848   1.065
 1639SOL    HW2 6555   3.970   2.955   0.973
 1639SOL     MW 6556   3.995   2.929   1.053
 1640SOL     OW 6557   3.683   4.398   9.015
 1640SOL    HW1 6558   3.609   4.357   9.060
 1640SOL    HW2 6559   3.699   4.480   9.062
 1640SOL     MW 6560   3.676   4.403   9.027
 1641SOL     OW 6561   7.633   0.183   4.905
 1641SOL    HW1 6562   7.586   0.191   4.822
 1641SOL    HW2 6563   7.565   0.166   4.969
 1641SOL     MW 6564   7.618   0.182   4.902
 1642SOL     OW 6565   2.561   5.810   2.343
 1642SOL    HW1 6566   2.617   5.791   2.418
 1642SOL    HW2 6567   2.473   5.785   2.371
 1642SOL     MW 6568   2.557   5.805   2.356
 1643SOL     OW 6569   6.961   6.351   6.147
 1643SOL    HW1 6570   7.053   6.331   6.130
 1643SOL    HW2 6571   6.915   6.269   6.126
 1643SOL     MW 6572   6.967   6.338   6.142
 1644SOL     OW 6573   8.451   7.597   9.058
 1644SOL    HW1 6574   8.499   7.655   9.117
 1644SOL    HW2 6575   8.481   7.509   9.081
 1644SOL     MW 6576   8.461   7.593   9.069
 1645SOL     OW 6577   0.722   2.567   4.842
 1645SOL    HW1 6578   0.741   2.655   4.810
 1645SOL    HW2 6579   0.808   2.527   4.856
 1645SOL     MW 6580   0.735   2.573   4.840
 1646SOL     OW 6581   8.404   8.324   7.792
 1646SOL    HW1 6582   8.455   8.359   7.865
 1646SOL    HW2 6583   8.396   8.397   7.731
 1646SOL     MW 6584   8.409   8.338   7.794
 1647SOL     OW 6585   5.021   8.512   1.183
 1647SOL    HW1 6586   4.977   8.433   1.152
 1647SOL    HW2 6587   4.975   8.584   1.139
 1647SOL     MW 6588   5.009   8.511   1.173
 1648SOL     OW 6589   3.897   9.209   6.258
 1648SOL    HW1 6590   3.921   9.143   6.322
 1648SOL    HW2 6591   3.909   9.167   6.173
 1648SOL     MW 6592   3.901   9.195   6.255
 1649SOL     OW 6593   8.933   4.049   0.503
 1649SOL    HW1 6594   8.957   3.990   0.574
 1649SOL    HW2 6595   8.867   4.107   0.540
 1649SOL     MW 6596   8.928   4.049   0.517
 1650SOL     OW 6597   8.272   5.466   5.884
 1650SOL    HW1 6598   8.249   5.554   5.914
 1650SOL    HW2 6599   8.347   5.441   5.939
 1650SOL     MW 6600   8.279   5.474   5.895
 1651SOL     OW 6601   3.934   7.344   7.015
 1651SOL    HW1 6602   3.974   7.287   6.950
 1651SOL    HW2 6603   3.908   7.285   7.086
 1651SOL     MW 6604   3.935   7.329   7.016
 1652SOL     OW 6605   1.752   6.907   0.123
 1652SOL    HW1 6606   1.835   6.941   0.089
 1652SOL    HW2 6607   1.699   6.984   0.140
 1652SOL     MW 6608   1.756   6.921   0.121
 1653SOL     OW 6609   0.425   9.208   3.660
 1653SOL    HW1 6610   0.502   9.216   3.717
 1653SOL    HW2 6611   0.409   9.114   3.654
 1653SOL     MW 6612   0.433   9.197   3.666
 1654SOL     OW 6613   6.865   0.347   2.679
 1654SOL    HW1 6614   6.854   0.417   2.745
 1654SOL    HW2 6615   6.889   0.270   2.731
 1654SOL     MW 6616   6.867   0.346   2.694
 1655SOL     OW 6617   8.632   7.427   9.421
 1655SOL    HW1 6618   8.703   7.489   9.405
 1655SOL    HW2 6619   8.557   7.482   9.445
 1655SOL     MW 6620   8.632   7.442   9.422
 1656SOL     OW 6621   2.293   3.073   7.008
 1656SOL    HW1 6622   2.233   3.112   6.945
 1656SOL    HW2 6623   2.330   3.148   7.055
 1656SOL     MW 6624   2.290   3.088   7.006
 1657SOL     OW 6625   1.555   6.361   8.247
 1657SOL    HW1 6626   1.587   6.305   8.177
 1657SOL    HW2 6627   1.603   6.443   8.236
 1657SOL     MW 6628   1.565   6.365   8.237
 1658SOL     OW 6629   5.559   2.945   5.899
 1658SOL    HW1 6630   5.546   2.881   5.969
 1658SOL    HW2 6631   5.490   3.010   5.913
 1658SOL     MW 6632   5.549   2.945   5.910
 1659SOL     OW 6633   3.444   3.962   7.844
 1659SOL    HW1 6634   3.398   3.972   7.760
 1659SOL    HW2 6635   3.489   3.878   7.836
 1659SOL     MW 6636   3.444   3.952   7.832
 1660SOL     OW 6637   3.467   2.443   2.689
 1660SOL    HW1 6638   3.453   2.481   2.776
 1660SOL    HW2 6639   3.384   2.403   2.667
 1660SOL     MW 6640   3.455   2.443   2.697
 1661SOL     OW 6641   2.502   9.519   6.945
 1661SOL    HW1 6642   2.471   9.590   7.002
 1661SOL    HW2 6643   2.434   9.452   6.950
 1661SOL     MW 6644   2.490   9.520   6.953
 1662SOL     OW 6645   0.604   9.518   8.511
 1662SOL    HW1 6646   0.665   9.484   8.578
 1662SOL    HW2 6647   0.618   9.612   8.511
 1662SOL     MW 6648   0.614   9.525   8.520
 1663SOL     OW 6649   2.332   3.554   3.720
 1663SOL    HW1 6650   2.240   3.566   3.744
 1663SOL    HW2 6651   2.338   3.463   3.690
 1663SOL     MW 6652   2.321   3.544   3.719
 1664SOL     OW 6653   6.290   3.170   6.323
 1664SOL    HW1 6654   6.275   3.130   6.238
 1664SOL    HW2 6655   6.202   3.186   6.358
 1664SOL     MW 6656   6.277   3.167   6.317
 1665SOL     OW 6657   1.975   1.805   1.108
 1665SOL    HW1 6658   1.950   1.762   1.189
 1665SOL    HW2 6659   1.955   1.898   1.123
 1665SOL     MW 6660   1.969   1.812   1.120
 1666SOL     OW 6661   6.813   4.255   4.807
 1666SOL    HW1 6662   6.740   4.201   4.775
 1666SOL    HW2 6663   6.844   4.209   4.885
 1666SOL     MW 6664   6.808   4.242   4.813
 1667SOL     OW 6665  10.038   2.774   4.443
 1667SOL    HW1 6666   9.987   2.832   4.499
 1667SOL    HW2 6667  10.008   2.686   4.466
 1667SOL     MW 6668  10.028   2.770   4.453
 1668SOL     OW 6669   4.554   9.257   9.338
 1668SOL    HW1 6670   4.642   9.285   9.313
 1668SOL    HW2 6671   4.558   9.162   9.336
 1668SOL     MW 6672   4.565   9.249   9.334
 1669SOL     OW 6673   2.598   8.477   1.176
 1669SOL    HW1 6674   2.640   8.472   1.089
 1669SOL    HW2 6675   2.520   8.529   1.161
 1669SOL     MW 6676   2.594   8.483   1.163
 1670SOL     OW 6677   5.528   7.260   8.083
 1670SOL    HW1 6678   5.583   7.253   8.161
 1670SOL    HW2 6679   5.589   7.285   8.014
 1670SOL     MW 6680   5.543   7.262   8.084
 1671SOL     OW 6681   7.187   1.924   2.486
 1671SOL    HW1 6682   7.140   1.841   2.488
 1671SOL    HW2 6683   7.199   1.948   2.578
 1671SOL     MW 6684   7.183   1.917   2.498
 1672SOL     OW 6685   3.507   2.892   3.714
 1672SOL    HW1 6686   3.578   2.902   3.778
 1672SOL    HW2 6687   3.451   2.824   3.752
 1672SOL     MW 6688   3.509   2.885   3.727
 1673SOL     OW 6689   3.896   3.038   0.062
 1673SOL    HW1 6690   3.972   3.027   0.005
 1673SOL    HW2 6691   3.854   3.119   0.032
 1673SOL     MW 6692   3.900   3.047   0.051
 1674SOL     OW 6693   3.289   5.003   9.730
 1674SOL    HW1 6694   3.258   5.064   9.665
 1674SOL    HW2 6695   3.380   4.985   9.705
 1674SOL     MW 6696   3.297   5.008   9.719
 1675SOL     OW 6697   4.742   1.191   5.186
 1675SOL    HW1 6698   4.677   1.221   5.249
 1675SOL    HW2 6699   4.707   1.108   5.152
 1675SOL     MW 6700   4.729   1.184   5.190
 1676SOL     OW 6701   8.776   6.321   3.096
 1676SOL    HW1 6702   8.691   6.353   3.064
 1676SOL    HW2 6703   8.830   6.400   3.103
 1676SOL     MW 6704   8.772   6.335   3.093
 1677SOL     OW 6705   3.628   2.296   7.568
 1677SOL    HW1 6706   3.718   2.271   7.590
 1677SOL    HW2 6707   3.629   2.305   7.472
 1677SOL     MW 6708   3.640   2.294   7.558
 1678SOL     OW 6709   3.140   5.693   0.366
 1678SOL    HW1 6710   3.100   5.609   0.391
 1678SOL    HW2 6711   3.193   5.717   0.442
 1678SOL     MW 6712   3.142   5.685   0.379
 1679SOL     OW 6713   2.422   5.771   1.217
 1679SOL    HW1 6714   2.425   5.783   1.122
 1679SOL    HW2 6715   2.330   5.753   1.236
 1679SOL     MW 6716   2.410   5.771   1.207
 1680SOL     OW 6717   4.744   3.071   8.702
 1680SOL    HW1 6718   4.793   3.031   8.774
 1680SOL    HW2 6719   4.755   3.011   8.629
 1680SOL     MW 6720   4.751   3.059   8.702
 1681SOL     OW 6721   7.357   2.008   9.448
 1681SOL    HW1 6722   7.303   1.939   9.487
 1681SOL    HW2 6723   7.431   2.017   9.508
 1681SOL     MW 6724   7.359   2.000   9.461
 1682SOL     OW 6725   8.959   4.991   1.343
 1682SOL    HW1 6726   8.989   4.904   1.368
 1682SOL    HW2 6727   8.923   5.028   1.423
 1682SOL     MW 6728   8.958   4.985   1.356
 1683SOL     OW 6729   5.289   6.353   5.519
 1683SOL    HW1 6730   5.375   6.396   5.528
 1683SOL    HW2 6731   5.232   6.402   5.578
 1683SOL     MW 6732   5.293   6.365   5.527
 1684SOL     OW 6733   6.709   3.586   9.579
 1684SOL    HW1 6734   6.643   3.522   9.605
 1684SOL    HW2 6735   6.691   3.663   9.633
 1684SOL     MW 6736   6.698   3.588   9.589
 1685SOL     OW 6737   7.510   9.111   6.559
 1685SOL    HW1 6738   7.424   9.099   6.519
 1685SOL    HW2 6739   7.506   9.059   6.639
 1685SOL     MW 6740   7.498   9.103   6.564
 1686SOL     OW 6741   8.473   6.450   4.990
 1686SOL    HW1 6742   8.545   6.427   4.932
 1686SOL    HW2 6743   8.475   6.384   5.059
 1686SOL     MW 6744   8.482   6.438   4.992
 1687SOL     OW 6745   9.416   7.753   6.714
 1687SOL    HW1 6746   9.500   7.710   6.698
 1687SOL    HW2 6747   9.439   7.838   6.751
 1687SOL     MW 6748   9.430   7.758   6.716
 1688SOL     OW 6749   7.176   3.925   3.754
 1688SOL    HW1 6750   7.231   3.850   3.729
 1688SOL    HW2 6751   7.200   3.994   3.693
 1688SOL     MW 6752   7.186   3.924   3.743
 1689SOL     OW 6753   6.505   3.302   6.983
 1689SOL    HW1 6754   6.419   3.296   7.025
 1689SOL    HW2 6755   6.541   3.385   7.015
 1689SOL     MW 6756   6.498   3.312   6.993
 1690SOL     OW 6757   2.986   1.577   9.673
 1690SOL    HW1 6758   2.910   1.632   9.693
 1690SOL    HW2 6759   3.062   1.633   9.691
 1690SOL     MW 6760   2.986   1.591   9.678
 1691SOL     OW 6761   9.365   4.995   6.218
 1691SOL    HW1 6762   9.363   5.021   6.126
 1691SOL    HW2 6763   9.281   5.025   6.254
 1691SOL     MW 6764   9.354   5.002   6.211
 1692SOL     OW 6765   8.117   3.030   4.967
 1692SOL    HW1 6766   8.107   3.100   4.903
 1692SOL    HW2 6767   8.134   3.075   5.050
 1692SOL     MW 6768   8.117   3.045   4.969
 1693SOL     OW 6769   8.466   7.128   0.330
 1693SOL    HW1 6770   8.390   7.085   0.368
 1693SOL    HW2 6771   8.456   7.117   0.236
 1693SOL     MW 6772   8.455   7.121   0.323
 1694SOL     OW 6773   1.712   8.960   3.504
 1694SOL    HW1 6774   1.741   8.876   3.470
 1694SOL    HW2 6775   1.747   9.024   3.442
 1694SOL     MW 6776   1.720   8.957   3.492
 1695SOL     OW 6777   3.536   3.009   5.109
 1695SOL    HW1 6778   3.578   2.926   5.131
 1695SOL    HW2 6779   3.516   3.002   5.016
 1695SOL     MW 6780   3.539   2.998   5.100
 1696SOL     OW 6781   3.007   0.905   0.643
 1696SOL    HW1 6782   3.038   0.848   0.713
 1696SOL    HW2 6783   2.964   0.978   0.688
 1696SOL     MW 6784   3.006   0.907   0.657
 1697SOL     OW 6785   0.237   9.583   4.666
 1697SOL    HW1 6786   0.282   9.514   4.715
 1697SOL    HW2 6787   0.182   9.627   4.731
 1697SOL     MW 6788   0.236   9.580   4.680
 1698SOL     OW 6789   4.220   6.122   8.675
 1698SOL    HW1 6790   4.300   6.147   8.721
 1698SOL    HW2 6791   4.249   6.091   8.590
 1698SOL     MW 6792   4.234   6.121   8.670
 1699SOL     OW 6793   0.016   3.482   2.565
 1699SOL    HW1 6794   0.100   3.454   2.601
 1699SOL    HW2 6795   0.038   3.557   2.509
 1699SOL     MW 6796   0.030   3.488   2.562
 1700SOL     OW 6797   2.026   4.097   1.170
 1700SOL    HW1 6798   2.017   4.130   1.259
 1700SOL    HW2 6799   1.940   4.060   1.149
 1700SOL     MW 6800   2.014   4.096   1.178
 1701SOL     OW 6801   8.533   8.412   5.081
 1701SOL    HW1 6802   8.464   8.347   5.070
 1701SOL    HW2 6803   8.493   8.481   5.134
 1701SOL     MW 6804   8.519   8.413   5.086
 1702SOL     OW 6805   1.745   5.111   6.198
 1702SOL    HW1 6806   1.707   5.023   6.200
 1702SOL    HW2 6807   1.786   5.122   6.284
 1702SOL     MW 6808   1.745   5.101   6.209
 1703SOL     OW 6809   7.910   4.434   6.488
 1703SOL    HW1 6810   7.869   4.383   6.418
 1703SOL    HW2 6811   7.851   4.424   6.563
 1703SOL     MW 6812   7.898   4.426   6.488
 1704SOL     OW 6813   4.949   8.968   4.565
 1704SOL    HW1 6814   4.947   9.064   4.558
 1704SOL    HW2 6815   4.962   8.951   4.658
 1704SOL     MW 6816   4.950   8.978   4.576
 1705SOL     OW 6817   8.623   6.915   0.413
 1705SOL    HW1 6818   8.579   6.996   0.386
 1705SOL    HW2 6819   8.560   6.872   0.471
 1705SOL     MW 6820   8.609   6.920   0.417
 1706SOL     OW 6821   0.899   4.008   7.129
 1706SOL    HW1 6822   0.907   3.930   7.184
 1706SOL    HW2 6823   0.805   4.025   7.126
 1706SOL     MW 6824   0.888   4.001   7.136
 1707SOL     OW 6825   0.565   3.645   9.882
 1707SOL    HW1 6826   0.565   3.736   9.853
 1707SOL    HW2 6827   0.647   3.635   9.930
 1707SOL     MW 6828   0.575   3.656   9.884
 1708SOL     OW 6829   5.206   2.104   5.812
 1708SOL    HW1 6830   5.197   2.189   5.855
 1708SOL    HW2 6831   5.267   2.120   5.740
 1708SOL     MW 6832   5.212   2.117   5.808
 1709SOL     OW 6833   5.366   6.044   8.867
 1709SOL    HW1 6834   5.439   6.002   8.820
 1709SOL    HW2 6835   5.288   6.018   8.819
 1709SOL     MW 6836   5.365   6.035   8.855
 1710SOL     OW 6837   2.079   8.638   8.191
 1710SOL    HW1 6838   1.984   8.623   8.191
 1710SOL    HW2 6839   2.093   8.705   8.125
 1710SOL     MW 6840   2.069   8.644   8.183
 1711SOL     OW 6841   9.940   9.028   0.071
 1711SOL    HW1 6842   9.928   9.035  -0.024
 1711SOL    HW2 6843   9.852   9.011   0.105
 1711SOL     MW 6844   9.927   9.027   0.063
 1712SOL     OW 6845   9.330   7.018   0.498
 1712SOL    HW1 6846   9.328   6.964   0.577
 1712SOL    HW2 6847   9.248   7.068   0.501
 1712SOL     MW 6848   9.319   7.018   0.509
 1713SOL     OW 6849   5.292   5.991   9.125
 1713SOL    HW1 6850   5.322   6.011   9.036
 1713SOL    HW2 6851   5.301   6.074   9.172
 1713SOL     MW 6852   5.297   6.004   9.119
 1714SOL     OW 6853   7.818   2.126   3.102
 1714SOL    HW1 6854   7.834   2.207   3.151
 1714SOL    HW2 6855   7.723   2.121   3.095
 1714SOL     MW 6856   7.808   2.136   3.107
 1715SOL     OW 6857   4.976   0.048   1.291
 1715SOL    HW1 6858   4.966   0.118   1.355
 1715SOL    HW2 6859   4.996  -0.030   1.344
 1715SOL     MW 6860   4.977   0.047   1.306
 1716SOL     OW 6861   6.617   7.484   4.228
 1716SOL    HW1 6862   6.611   7.474   4.133
 1716SOL    HW2 6863   6.709   7.468   4.248
 1716SOL     MW 6864   6.628   7.481   4.218
 1717SOL     OW 6865   3.865   8.263   6.698
 1717SOL    HW1 6866   3.909   8.184   6.730
 1717SOL    HW2 6867   3.783   8.266   6.746
 1717SOL     MW 6868   3.861   8.253   6.708
 1718SOL     OW 6869   8.516   6.282   1.755
 1718SOL    HW1 6870   8.607   6.254   1.760
 1718SOL    HW2 6871   8.502   6.332   1.835
 1718SOL     MW 6872   8.526   6.285   1.766
 1719SOL     OW 6873   9.617   8.798   7.109
 1719SOL    HW1 6874   9.523   8.817   7.108
 1719SOL    HW2 6875   9.641   8.793   7.017
 1719SOL     MW 6876   9.608   8.800   7.097
 1720SOL     OW 6877   4.724   2.192   1.883
 1720SOL    HW1 6878   4.720   2.212   1.790
 1720SOL    HW2 6879   4.653   2.130   1.898
 1720SOL     MW 6880   4.714   2.187   1.873
 1721SOL     OW 6881   8.570  10.110   7.124
 1721SOL    HW1 6882   8.515  10.057   7.181
 1721SOL    HW2 6883   8.543  10.201   7.141
 1721SOL     MW 6884   8.559  10.115   7.133
 1722SOL     OW 6885   8.370   2.760   2.856
 1722SOL    HW1 6886   8.358   2.694   2.924
 1722SOL    HW2 6887   8.287   2.807   2.854
 1722SOL     MW 6888   8.358   2.757   2.865
 1723SOL     OW 6889   2.298   4.077   5.204
 1723SOL    HW1 6890   2.362   4.072   5.275
 1723SOL    HW2 6891   2.232   4.138   5.235
 1723SOL     MW 6892   2.298   4.084   5.217
 1724SOL     OW 6893   3.685   6.095  -0.005
 1724SOL    HW1 6894   3.650   6.010   0.022
 1724SOL    HW2 6895   3.627   6.159   0.036
 1724SOL     MW 6896   3.673   6.092   0.004
 1725SOL     OW 6897   7.179   0.851   8.684
 1725SOL    HW1 6898   7.110   0.793   8.652
 1725SOL    HW2 6899   7.206   0.902   8.608
 1725SOL     MW 6900   7.174   0.850   8.671
 1726SOL     OW 6901   1.800   5.344   7.903
 1726SOL    HW1 6902   1.776   5.255   7.928
 1726SOL    HW2 6903   1.773   5.398   7.978
 1726SOL     MW 6904   1.793   5.339   7.916
 1727SOL     OW 6905   8.576   3.193   0.392
 1727SOL    HW1 6906   8.559   3.241   0.311
 1727SOL    HW2 6907   8.663   3.221   0.419
 1727SOL     MW 6908   8.585   3.203   0.385
 1728SOL     OW 6909   9.183   5.990   0.041
 1728SOL    HW1 6910   9.186   5.940   0.122
 1728SOL    HW2 6911   9.127   5.938  -0.017
 1728SOL     MW 6912   9.176   5.977   0.044
 1729SOL     OW 6913   7.811   4.908   9.093
 1729SOL    HW1 6914   7.818   5.001   9.073
 1729SOL    HW2 6915   7.720   4.886   9.076
 1729SOL     MW 6916   7.801   4.917   9.088
 1730SOL     OW 6917   7.447   0.650   0.779
 1730SOL    HW1 6918   7.515   0.699   0.826
 1730SOL    HW2 6919   7.383   0.717   0.755
 1730SOL     MW 6920   7.448   0.665   0.782
 1731SOL     OW 6921   0.772   2.798   8.926
 1731SOL    HW1 6922   0.791   2.723   8.982
 1731SOL    HW2 6923   0.702   2.845   8.971
 1731SOL     MW 6924   0.765   2.795   8.939
 1732SOL     OW 6925   3.968   5.686   1.123
 1732SOL    HW1 6926   3.963   5.591   1.114
 1732SOL    HW2 6927   4.015   5.715   1.045
 1732SOL     MW 6928   3.974   5.678   1.112
 1733SOL     OW 6929   1.865   2.627   2.200
 1733SOL    HW1 6930   1.860   2.609   2.106
 1733SOL    HW2 6931   1.955   2.658   2.213
 1733SOL     MW 6932   1.876   2.629   2.189
 1734SOL     OW 6933   6.062   5.873   9.707
 1734SOL    HW1 6934   6.120   5.865   9.783
 1734SOL    HW2 6935   6.096   5.949   9.659
 1734SOL     MW 6936   6.074   5.882   9.711
 1735SOL     OW 6937   7.416   1.408   9.699
 1735SOL    HW1 6938   7.418   1.314   9.719
 1735SOL    HW2 6939   7.495   1.422   9.646
 1735SOL     MW 6940   7.427   1.398   9.695
 1736SOL     OW 6941   1.216   1.841   9.808
 1736SOL    HW1 6942   1.224   1.849   9.903
 1736SOL    HW2 6943   1.215   1.747   9.791
 1736SOL     MW 6944   1.217   1.830   9.818
 1737SOL     OW 6945   3.370   7.337   9.670
 1737SOL    HW1 6946   3.415   7.416   9.701
 1737SOL    HW2 6947   3.409   7.320   9.584
 1737SOL     MW 6948   3.381   7.345   9.663
 1738SOL     OW 6949   0.277   2.655   6.414
 1738SOL    HW1 6950   0.185   2.639   6.393
 1738SOL    HW2 6951   0.287   2.750   6.409
 1738SOL     MW 6952   0.267   2.665   6.411
 1739SOL     OW 6953   6.268   7.683   2.692
 1739SOL    HW1 6954   6.306   7.606   2.733
 1739SOL    HW2 6955   6.312   7.690   2.607
 1739SOL     MW 6956   6.278   7.674   2.686
 1740SOL     OW 6957   9.643   6.825   0.227
 1740SOL    HW1 6958   9.650   6.742   0.180
 1740SOL    HW2 6959   9.549   6.836   0.242
 1740SOL     MW 6960   9.631   6.816   0.223
 1741SOL     OW 6961   9.155   2.173   7.976
 1741SOL    HW1 6962   9.185   2.226   7.903
 1741SOL    HW2 6963   9.188   2.218   8.054
 1741SOL     MW 6964   9.163   2.185   7.977
 1742SOL     OW 6965   8.041   9.414   4.475
 1742SOL    HW1 6966   7.980   9.357   4.430
 1742SOL    HW2 6967   8.088   9.460   4.406
 1742SOL     MW 6968   8.039   9.413   4.461
 1743SOL     OW 6969   4.795   8.533   0.762
 1743SOL    HW1 6970   4.794   8.564   0.852
 1743SOL    HW2 6971   4.729   8.587   0.718
 1743SOL     MW 6972   4.786   8.544   0.768
 1744SOL     OW 6973   3.543   7.364   7.783
 1744SOL    HW1 6974   3.546   7.311   7.863
 1744SOL    HW2 6975   3.595   7.442   7.803
 1744SOL     MW 6976   3.550   7.367   7.796
 1745SOL     OW 6977   7.535  10.090   8.234
 1745SOL    HW1 6978   7.535  10.147   8.311
 1745SOL    HW2 6979   7.460  10.032   8.248
 1745SOL     MW 6980   7.525  10.090   8.246
 1746SOL     OW 6981   8.500   5.063   7.178
 1746SOL    HW1 6982   8.434   5.133   7.183
 1746SOL    HW2 6983   8.573   5.103   7.131
 1746SOL     MW 6984   8.501   5.077   7.173
 1747SOL     OW 6985   7.888   3.496   8.866
 1747SOL    HW1 6986   7.858   3.569   8.811
 1747SOL    HW2 6987   7.847   3.513   8.951
 1747SOL     MW 6988   7.879   3.508   8.870
 1748SOL     OW 6989   5.822   1.571   8.603
 1748SOL    HW1 6990   5.784   1.497   8.556
 1748SOL    HW2 6991   5.917   1.560   8.594
 1748SOL     MW 6992   5.829   1.560   8.596
 1749SOL     OW 6993   0.343   0.762  10.083
 1749SOL    HW1 6994   0.282   0.772  10.156
 1749SOL    HW2 6995   0.420   0.814  10.109
 1749SOL     MW 6996   0.345   0.770  10.096
 1750SOL     OW 6997   3.375   2.433   6.287
 1750SOL    HW1 6998   3.423   2.413   6.207
 1750SOL    HW2 6999   3.435   2.410   6.358
 1750SOL     MW 7000   3.389   2.428   6.285
 1751SOL     OW 7001   9.163   6.288   8.036
 1751SOL    HW1 7002   9.144   6.355   8.102
 1751SOL    HW2 7003   9.221   6.332   7.974
 1751SOL     MW 7004   9.168   6.302   8.037
 1752SOL     OW 7005   3.362   7.822   0.138
 1752SOL    HW1 7006   3.306   7.858   0.207
 1752SOL    HW2 7007   3.329   7.861   0.057
 1752SOL     MW 7008   3.350   7.832   0.137
 1753SOL     OW 7009   1.565   4.216   7.088
 1753SOL    HW1 7010   1.644   4.232   7.036
 1753SOL    HW2 7011   1.513   4.155   7.034
 1753SOL     MW 7012   1.568   4.210   7.074
 1754SOL     OW 7013   1.783   2.711   0.288
 1754SOL    HW1 7014   1.812   2.778   0.351
 1754SOL    HW2 7015   1.821   2.630   0.321
 1754SOL     MW 7016   1.792   2.709   0.300
 1755SOL     OW 7017   0.576   6.915   6.367
 1755SOL    HW1 7018   0.490   6.951   6.343
 1755SOL    HW2 7019   0.560   6.869   6.449
 1755SOL     MW 7020   0.563   6.914   6.375
 1756SOL     OW 7021   7.762   3.548   9.101
 1756SOL    HW1 7022   7.715   3.485   9.155
 1756SOL    HW2 7023   7.797   3.612   9.162
 1756SOL     MW 7024   7.760   3.548   9.116
 1757SOL     OW 7025   3.062   8.229   5.511
 1757SOL    HW1 7026   2.967   8.240   5.512
 1757SOL    HW2 7027   3.093   8.282   5.584
 1757SOL     MW 7028   3.054   8.237   5.520
 1758SOL     OW 7029   8.428   4.815   5.467
 1758SOL    HW1 7030   8.522   4.824   5.455
 1758SOL    HW2 7031   8.403   4.890   5.521
 1758SOL     MW 7032   8.437   4.825   5.473
 1759SOL     OW 7033   5.028  10.100   2.158
 1759SOL    HW1 7034   5.028  10.040   2.083
 1759SOL    HW2 7035   4.937  10.127   2.167
 1759SOL     MW 7036   5.016  10.096   2.149
 1760SOL     OW 7037   5.038   8.059   8.183
 1760SOL    HW1 7038   5.063   7.984   8.238
 1760SOL    HW2 7039   5.047   8.026   8.093
 1760SOL     MW 7040   5.042   8.045   8.178
 1761SOL     OW 7041   7.669   3.908   2.565
 1761SOL    HW1 7042   7.726   3.844   2.607
 1761SOL    HW2 7043   7.714   3.932   2.484
 1761SOL     MW 7044   7.682   3.903   2.560
 1762SOL     OW 7045   4.816   7.116   8.366
 1762SOL    HW1 7046   4.793   7.147   8.278
 1762SOL    HW2 7047   4.736   7.130   8.417
 1762SOL     MW 7048   4.803   7.122   8.361
 1763SOL     OW 7049  10.011   8.642   7.265
 1763SOL    HW1 7050  10.064   8.649   7.186
 1763SOL    HW2 7051   9.967   8.557   7.258
 1763SOL     MW 7052  10.012   8.632   7.254
 1764SOL     OW 7053   3.256   5.009   8.424
 1764SOL    HW1 7054   3.329   4.948   8.409
 1764SOL    HW2 7055   3.192   4.987   8.357
 1764SOL     MW 7056   3.257   4.998   8.414
 1765SOL     OW 7057   2.721   3.514   8.239
 1765SOL    HW1 7058   2.785   3.462   8.287
 1765SOL    HW2 7059   2.734   3.604   8.271
 1765SOL     MW 7060   2.731   3.519   8.249
 1766SOL     OW 7061   6.290   0.135   5.630
 1766SOL    HW1 7062   6.273   0.098   5.717
 1766SOL    HW2 7063   6.315   0.060   5.576
 1766SOL     MW 7064   6.291   0.121   5.634
 1767SOL     OW 7065   5.783   6.432   4.915
 1767SOL    HW1 7066   5.839   6.401   4.986
 1767SOL    HW2 7067   5.823   6.514   4.887
 1767SOL     MW 7068   5.795   6.439   4.920
 1768SOL     OW 7069   4.339   0.560   7.033
 1768SOL    HW1 7070   4.353   0.535   6.942
 1768SOL    HW2 7071   4.313   0.479   7.077
 1768SOL     MW 7072   4.337   0.547   7.027
 1769SOL     OW 7073   1.451   4.010   9.571
 1769SOL    HW1 7074   1.483   3.923   9.593
 1769SOL    HW2 7075   1.531   4.062   9.557
 1769SOL     MW 7076   1.465   4.006   9.572
 1770SOL     OW 7077   6.949   8.380   2.547
 1770SOL    HW1 7078   6.857   8.384   2.571
 1770SOL    HW2 7079   6.953   8.413   2.457
 1770SOL     MW 7080   6.938   8.384   2.538
 1771SOL     OW 7081   8.226   9.080   9.818
 1771SOL    HW1 7082   8.170   9.121   9.884
 1771SOL    HW2 7083   8.255   8.998   9.858
 1771SOL     MW 7084   8.222   9.075   9.831
 1772SOL     OW 7085   6.573   4.951   0.240
 1772SOL    HW1 7086   6.553   4.964   0.333
 1772SOL    HW2 7087   6.489   4.925   0.202
 1772SOL     MW 7088   6.559   4.949   0.247
 1773SOL     OW 7089   6.673   2.366   3.523
 1773SOL    HW1 7090   6.637   2.441   3.475
 1773SOL    HW2 7091   6.719   2.405   3.597
 1773SOL     MW 7092   6.674   2.381   3.526
 1774SOL     OW 7093   3.227   6.303   5.561
 1774SOL    HW1 7094   3.182   6.298   5.477
 1774SOL    HW2 7095   3.300   6.363   5.546
 1774SOL     MW 7096   3.231   6.310   5.548
 1775SOL     OW 7097   8.972   0.085   3.631
 1775SOL    HW1 7098   8.929   0.034   3.699
 1775SOL    HW2 7099   8.913   0.160   3.617
 1775SOL     MW 7100   8.959   0.088   3.638
 1776SOL     OW 7101   7.952   1.933   2.115
 1776SOL    HW1 7102   7.978   2.000   2.051
 1776SOL    HW2 7103   7.944   1.981   2.197
 1776SOL     MW 7104   7.955   1.948   2.117
 1777SOL     OW 7105   0.781   8.175   2.594
 1777SOL    HW1 7106   0.794   8.202   2.684
 1777SOL    HW2 7107   0.760   8.256   2.547
 1777SOL     MW 7108   0.780   8.189   2.599
 1778SOL     OW 7109   7.104   3.960   4.016
 1778SOL    HW1 7110   7.189   3.937   4.054
 1778SOL    HW2 7111   7.117   3.950   3.922
 1778SOL     MW 7112   7.117   3.956   4.009
 1779SOL     OW 7113   0.958   5.012   0.787
 1779SOL    HW1 7114   0.915   5.084   0.831
 1779SOL    HW2 7115   0.979   4.949   0.857
 1779SOL     MW 7116   0.955   5.013   0.801
 1780SOL     OW 7117   7.594   6.387   1.287
 1780SOL    HW1 7118   7.663   6.436   1.332
 1780SOL    HW2 7119   7.556   6.451   1.227
 1780SOL     MW 7120   7.598   6.401   1.285
 1781SOL     OW 7121   1.471   2.475   0.038
 1781SOL    HW1 7122   1.384   2.513   0.049
 1781SOL    HW2 7123   1.531   2.549   0.046
 1781SOL     MW 7124   1.468   2.489   0.041
 1782SOL     OW 7125   7.419   5.421   2.465
 1782SOL    HW1 7126   7.376   5.352   2.516
 1782SOL    HW2 7127   7.447   5.485   2.530
 1782SOL     MW 7128   7.417   5.420   2.480
 1783SOL     OW 7129   5.671   8.194   9.216
 1783SOL    HW1 7130   5.690   8.222   9.306
 1783SOL    HW2 7131   5.664   8.276   9.166
 1783SOL     MW 7132   5.672   8.208   9.221
 1784SOL     OW 7133   3.070   9.788   9.263
 1784SOL    HW1 7134   3.120   9.731   9.205
 1784SOL    HW2 7135   2.993   9.813   9.211
 1784SOL     MW 7136   3.066   9.784   9.249
 1785SOL     OW 7137   7.485   5.810   2.460
 1785SOL    HW1 7138   7.532   5.778   2.384
 1785SOL    HW2 7139   7.482   5.905   2.449
 1785SOL     MW 7140   7.490   5.818   2.449
 1786SOL     OW 7141   6.075   7.343   7.353
 1786SOL    HW1 7142   6.003   7.389   7.310
 1786SOL    HW2 7143   6.152   7.398   7.336
 1786SOL     MW 7144   6.076   7.356   7.345
 1787SOL     OW 7145   6.828   5.203   2.178
 1787SOL    HW1 7146   6.743   5.219   2.138
 1787SOL    HW2 7147   6.859   5.290   2.203
 1787SOL     MW 7148   6.821   5.216   2.176
 1788SOL     OW 7149   9.570   9.183   2.196
 1788SOL    HW1 7150   9.538   9.201   2.108
 1788SOL    HW2 7151   9.506   9.223   2.254
 1788SOL     MW 7152   9.558   9.190   2.192
 1789SOL     OW 7153   9.408   3.868   7.115
 1789SOL    HW1 7154   9.461   3.939   7.152
 1789SOL    HW2 7155   9.463   3.791   7.120
 1789SOL     MW 7156   9.422   3.867   7.120
 1790SOL     OW 7157   2.501   3.954   5.655
 1790SOL    HW1 7158   2.584   3.933   5.699
 1790SOL    HW2 7159   2.434   3.929   5.719
 1790SOL     MW 7160   2.503   3.948   5.669
 1791SOL     OW 7161   2.553   5.464   6.912
 1791SOL    HW1 7162   2.590   5.513   6.839
 1791SOL    HW2 7163   2.623   5.405   6.940
 1791SOL     MW 7164   2.567   5.463   6.906
 1792SOL     OW 7165   1.781   6.619   1.362
 1792SOL    HW1 7166   1.872   6.622   1.333
 1792SOL    HW2 7167   1.730   6.649   1.286
 1792SOL     MW 7168   1.786   6.623   1.349
 1793SOL     OW 7169  10.033   5.569   9.198
 1793SOL    HW1 7170   9.947   5.533   9.217
 1793SOL    HW2 7171  10.018   5.628   9.124
 1793SOL     MW 7172  10.020   5.572   9.191
 1794SOL     OW 7173   2.330   2.542   1.552
 1794SOL    HW1 7174   2.417   2.560   1.588
 1794SOL    HW2 7175   2.298   2.466   1.601
 1794SOL     MW 7176   2.337   2.535   1.563
 1795SOL     OW 7177   7.386   1.922   2.298
 1795SOL    HW1 7178   7.321   1.928   2.368
 1795SOL    HW2 7179   7.398   2.012   2.268
 1795SOL     MW 7180   7.379   1.934   2.303
 1796SOL     OW 7181   4.521   9.944   4.163
 1796SOL    HW1 7182   4.570   9.983   4.091
 1796SOL    HW2 7183   4.557   9.856   4.172
 1796SOL     MW 7184   4.532   9.938   4.155
 1797SOL     OW 7185   0.969   5.075   1.895
 1797SOL    HW1 7186   0.900   5.141   1.907
 1797SOL    HW2 7187   0.959   5.047   1.804
 1797SOL     MW 7188   0.959   5.080   1.884
 1798SOL     OW 7189   6.881   1.778   0.008
 1798SOL    HW1 7190   6.818   1.821   0.065
 1798SOL    HW2 7191   6.909   1.846  -0.054
 1798SOL     MW 7192   6.877   1.792   0.007
 1799SOL     OW 7193   4.210   6.192   9.692
 1799SOL    HW1 7194   4.123   6.154   9.678
 1799SOL    HW2 7195   4.203   6.239   9.775
 1799SOL     MW 7196   4.198   6.193   9.701
 1800SOL     OW 7197   0.418   9.381   0.717
 1800SOL    HW1 7198   0.332   9.397   0.679
 1800SOL    HW2 7199   0.476   9.440   0.668
 1800SOL     MW 7200   0.415   9.391   0.706
 1801SOL     OW 7201   0.570   5.091   0.981
 1801SOL    HW1 7202   0.486   5.128   0.957
 1801SOL    HW2 7203   0.567   5.001   0.950
 1801SOL     MW 7204   0.559   5.084   0.974
 1802SOL     OW 7205   9.968   7.355   8.321
 1802SOL    HW1 7206   9.951   7.287   8.385
 1802SOL    HW2 7207   9.882   7.377   8.286
 1802SOL     MW 7208   9.955   7.349   8.324
 1803SOL     OW 7209   6.872   2.400   8.518
 1803SOL    HW1 7210   6.908   2.460   8.454
 1803SOL    HW2 7211   6.934   2.327   8.521
 1803SOL     MW 7212   6.884   2.398   8.510
 1804SOL     OW 7213   1.894   6.363   1.397
 1804SOL    HW1 7214   1.831   6.435   1.402
 1804SOL    HW2 7215   1.844   6.290   1.362
 1804SOL     MW 7216   1.880   6.363   1.393
 1805SOL     OW 7217   9.290   6.271   1.529
 1805SOL    HW1 7218   9.272   6.341   1.593
 1805SOL    HW2 7219   9.244   6.299   1.450
 1805SOL     MW 7220   9.282   6.284   1.527
 1806SOL     OW 7221   4.084   6.573   5.496
 1806SOL    HW1 7222   4.009   6.623   5.463
 1806SOL    HW2 7223   4.055   6.482   5.494
 1806SOL     MW 7224   4.071   6.568   5.491
 1807SOL     OW 7225   8.153   9.327   5.905
 1807SOL    HW1 7226   8.245   9.350   5.924
 1807SOL    HW2 7227   8.136   9.366   5.820
 1807SOL     MW 7228   8.163   9.335   5.897
 1808SOL     OW 7229   1.354   8.524   1.319
 1808SOL    HW1 7230   1.444   8.528   1.287
 1808SOL    HW2 7231   1.340   8.431   1.339
 1808SOL     MW 7232   1.364   8.512   1.317
 1809SOL     OW 7233   4.110   8.850   1.783
 1809SOL    HW1 7234   4.056   8.806   1.848
 1809SOL    HW2 7235   4.177   8.785   1.760
 1809SOL     MW 7236   4.112   8.836   1.788
 1810SOL     OW 7237   5.756   5.499   4.609
 1810SOL    HW1 7238   5.680   5.545   4.572
 1810SOL    HW2 7239   5.824   5.566   4.617
 1810SOL     MW 7240   5.755   5.513   4.605
 1811SOL     OW 7241   4.386   9.963   7.380
 1811SOL    HW1 7242   4.463   9.964   7.437
 1811SOL    HW2 7243   4.361   9.871   7.376
 1811SOL     MW 7244   4.393   9.951   7.387
 1812SOL     OW 7245   3.374   3.526   5.904
 1812SOL    HW1 7246   3.423   3.578   5.840
 1812SOL    HW2 7247   3.331   3.458   5.853
 1812SOL     MW 7248   3.375   3.524   5.890
 1813SOL     OW 7249   3.069   1.509   5.253
 1813SOL    HW1 7250   3.081   1.501   5.348
 1813SOL    HW2 7251   3.015   1.435   5.229
 1813SOL     MW 7252   3.064   1.499   5.262
 1814SOL     OW 7253   8.540   4.986   7.441
 1814SOL    HW1 7254   8.527   5.024   7.355
 1814SOL    HW2 7255   8.489   4.905   7.440
 1814SOL     MW 7256   8.532   4.981   7.430
 1815SOL     OW 7257   5.685   3.561   5.869
 1815SOL    HW1 7258   5.642   3.479   5.844
 1815SOL    HW2 7259   5.745   3.536   5.940
 1815SOL     MW 7260   5.687   3.547   5.875
 1816SOL     OW 7261   6.556   1.783   8.611
 1816SOL    HW1 7262   6.632   1.753   8.661
 1816SOL    HW2 7263   6.584   1.865   8.571
 1816SOL     MW 7264   6.569   1.789   8.612
 1817SOL     OW 7265   6.911   7.667   7.089
 1817SOL    HW1 7266   7.001   7.699   7.080
 1817SOL    HW2 7267   6.892   7.674   7.182
 1817SOL     MW 7268   6.920   7.672   7.100
 1818SOL     OW 7269   8.834   1.923   0.226
 1818SOL    HW1 7270   8.801   2.013   0.235
 1818SOL    HW2 7271   8.811   1.899   0.136
 1818SOL     MW 7272   8.826   1.932   0.216
 1819SOL     OW 7273   0.187   8.506   4.212
 1819SOL    HW1 7274   0.157   8.423   4.175
 1819SOL    HW2 7275   0.155   8.505   4.302
 1819SOL     MW 7276   0.179   8.495   4.219
 1820SOL     OW 7277   1.378   6.460   2.600
 1820SOL    HW1 7278   1.429   6.506   2.666
 1820SOL    HW2 7279   1.304   6.423   2.648
 1820SOL     MW 7280   1.375   6.461   2.615
 1821SOL     OW 7281   7.118   2.700   8.023
 1821SOL    HW1 7282   7.201   2.711   7.976
 1821SOL    HW2 7283   7.138   2.724   8.113
 1821SOL     MW 7284   7.131   2.704   8.028
 1822SOL     OW 7285   7.382   3.982   7.730
 1822SOL    HW1 7286   7.418   3.913   7.787
 1822SOL    HW2 7287   7.459   4.034   7.706
 1822SOL     MW 7288   7.397   3.979   7.734
 1823SOL     OW 7289   5.474   7.954   3.795
 1823SOL    HW1 7290   5.467   7.894   3.869
 1823SOL    HW2 7291   5.496   7.898   3.721
 1823SOL     MW 7292   5.476   7.939   3.795
 1824SOL     OW 7293   8.356   2.517   6.526
 1824SOL    HW1 7294   8.444   2.487   6.549
 1824SOL    HW2 7295   8.300   2.483   6.597
 1824SOL     MW 7296   8.360   2.509   6.538
 1825SOL     OW 7297   4.359   2.705   0.988
 1825SOL    HW1 7298   4.401   2.774   1.038
 1825SOL    HW2 7299   4.378   2.726   0.897
 1825SOL     MW 7300   4.367   2.716   0.983
 1826SOL     OW 7301   0.250   6.373   6.578
 1826SOL    HW1 7302   0.341   6.374   6.549
 1826SOL    HW2 7303   0.255   6.383   6.673
 1826SOL     MW 7304   0.262   6.374   6.587
 1827SOL     OW 7305   2.336   8.747   9.181
 1827SOL    HW1 7306   2.316   8.840   9.170
 1827SOL    HW2 7307   2.408   8.730   9.120
 1827SOL     MW 7308   2.343   8.757   9.172
 1828SOL     OW 7309   9.787   5.189   5.371
 1828SOL    HW1 7310   9.786   5.141   5.454
 1828SOL    HW2 7311   9.696   5.219   5.360
 1828SOL     MW 7312   9.775   5.187   5.380
 1829SOL     OW 7313   8.065   7.918   1.931
 1829SOL    HW1 7314   8.154   7.891   1.953
 1829SOL    HW2 7315   8.017   7.913   2.014
 1829SOL     MW 7316   8.070   7.914   1.944
 1830SOL     OW 7317   2.439   2.476   1.307
 1830SOL    HW1 7318   2.376   2.421   1.259
 1830SOL    HW2 7319   2.392   2.502   1.387
 1830SOL     MW 7320   2.425   2.472   1.311
 1831SOL     OW 7321   8.383   9.157   9.609
 1831SOL    HW1 7322   8.324   9.187   9.541
 1831SOL    HW2 7323   8.326   9.137   9.684
 1831SOL     MW 7324   8.368   9.158   9.610
 1832SOL     OW 7325   8.672   1.384   0.813
 1832SOL    HW1 7326   8.646   1.424   0.896
 1832SOL    HW2 7327   8.599   1.326   0.790
 1832SOL     MW 7328   8.659   1.381   0.821
 1833SOL     OW 7329   8.600   7.432   3.996
 1833SOL    HW1 7330   8.513   7.470   3.980
 1833SOL    HW2 7331   8.601   7.352   3.943
 1833SOL     MW 7332   8.589   7.427   3.987
 1834SOL     OW 7333   6.135   0.602   7.102
 1834SOL    HW1 7334   6.053   0.588   7.055
 1834SOL    HW2 7335   6.133   0.695   7.127
 1834SOL     MW 7336   6.124   0.612   7.099
 1835SOL     OW 7337   2.664   6.623   7.832
 1835SOL    HW1 7338   2.673   6.582   7.918
 1835SOL    HW2 7339   2.745   6.600   7.786
 1835SOL     MW 7340   2.675   6.614   7.837
 1836SOL     OW 7341   6.553   2.578   6.435
 1836SOL    HW1 7342   6.646   2.562   6.418
 1836SOL    HW2 7343   6.551   2.660   6.484
 1836SOL     MW 7344   6.565   2.586   6.439
 1837SOL     OW 7345   0.574   8.875   9.736
 1837SOL    HW1 7346   0.547   8.921   9.657
 1837SOL    HW2 7347   0.509   8.806   9.747
 1837SOL     MW 7348   0.563   8.872   9.728
 1838SOL     OW 7349   9.887   8.805   8.440
 1838SOL    HW1 7350   9.834   8.841   8.511
 1838SOL    HW2 7351   9.934   8.880   8.403
 1838SOL     MW 7352   9.886   8.819   8.444
 1839SOL     OW 7353   7.001   2.475   7.666
 1839SOL    HW1 7354   7.028   2.553   7.617
 1839SOL    HW2 7355   6.943   2.508   7.734
 1839SOL     MW 7356   6.997   2.489   7.668
 1840SOL     OW 7357   5.585   1.571   6.339
 1840SOL    HW1 7358   5.551   1.554   6.251
 1840SOL    HW2 7359   5.510   1.556   6.396
 1840SOL     MW 7360   5.571   1.567   6.335
 1841SOL     OW 7361   9.229   5.998   1.256
 1841SOL    HW1 7362   9.293   6.046   1.203
 1841SOL    HW2 7363   9.281   5.961   1.328
 1841SOL     MW 7364   9.244   5.999   1.258
 1842SOL     OW 7365   2.861   6.276   8.058
 1842SOL    HW1 7366   2.935   6.268   8.119
 1842SOL    HW2 7367   2.833   6.367   8.066
 1842SOL     MW 7368   2.867   6.286   8.067
 1843SOL     OW 7369   5.084   1.398   5.451
 1843SOL    HW1 7370   5.165   1.443   5.427
 1843SOL    HW2 7371   5.056   1.354   5.371
 1843SOL     MW 7372   5.091   1.398   5.438
 1844SOL     OW 7373   9.545   6.265   8.040
 1844SOL    HW1 7374   9.480   6.202   8.071
 1844SOL    HW2 7375   9.617   6.212   8.006
 1844SOL     MW 7376   9.546   6.250   8.040
 1845SOL     OW 7377   2.764   6.530   6.673
 1845SOL    HW1 7378   2.784   6.556   6.583
 1845SOL    HW2 7379   2.848   6.534   6.719
 1845SOL     MW 7380   2.777   6.534   6.668
 1846SOL     OW 7381   1.123   9.090   7.574
 1846SOL    HW1 7382   1.083   9.116   7.491
 1846SOL    HW2 7383   1.118   8.995   7.574
 1846SOL     MW 7384   1.117   9.081   7.563
 1847SOL     OW 7385   6.521   1.690   0.175
 1847SOL    HW1 7386   6.586   1.757   0.197
 1847SOL    HW2 7387   6.462   1.733   0.113
 1847SOL     MW 7388   6.521   1.704   0.170
 1848SOL     OW 7389   3.706   5.755   4.738
 1848SOL    HW1 7390   3.786   5.777   4.690
 1848SOL    HW2 7391   3.689   5.663   4.717
 1848SOL     MW 7392   3.714   5.746   4.729
 1849SOL     OW 7393   8.126   9.507   6.112
 1849SOL    HW1 7394   8.041   9.509   6.155
 1849SOL    HW2 7395   8.116   9.444   6.041
 1849SOL     MW 7396   8.114   9.499   6.109
 1850SOL     OW 7397   3.914   4.883   6.427
 1850SOL    HW1 7398   3.994   4.881   6.479
 1850SOL    HW2 7399   3.942   4.861   6.338
 1850SOL     MW 7400   3.928   4.880   6.422
 1851SOL     OW 7401   3.261   7.512   3.929
 1851SOL    HW1 7402   3.248   7.577   3.998
 1851SOL    HW2 7403   3.182   7.458   3.931
 1851SOL     MW 7404   3.250   7.513   3.938
 1852SOL     OW 7405   2.716   3.883   5.814
 1852SOL    HW1 7406   2.799   3.900   5.858
 1852SOL    HW2 7407   2.661   3.842   5.881
 1852SOL     MW 7408   2.719   3.880   5.828
 1853SOL     OW 7409   0.270   1.666   9.544
 1853SOL    HW1 7410   0.268   1.762   9.541
 1853SOL    HW2 7411   0.361   1.643   9.527
 1853SOL     MW 7412   0.281   1.675   9.542
 1854SOL     OW 7413   5.368   0.751   9.324
 1854SOL    HW1 7414   5.362   0.727   9.417
 1854SOL    HW2 7415   5.360   0.667   9.278
 1854SOL     MW 7416   5.366   0.737   9.330
 1855SOL     OW 7417   7.207   2.249   8.724
 1855SOL    HW1 7418   7.228   2.341   8.707
 1855SOL    HW2 7419   7.292   2.204   8.721
 1855SOL     MW 7420   7.220   2.255   8.722
 1856SOL     OW 7421   6.561   3.030   5.521
 1856SOL    HW1 7422   6.488   3.063   5.574
 1856SOL    HW2 7423   6.617   3.106   5.508
 1856SOL     MW 7424   6.559   3.044   5.526
 1857SOL     OW 7425   3.996   7.587   7.815
 1857SOL    HW1 7426   4.084   7.598   7.781
 1857SOL    HW2 7427   3.948   7.665   7.788
 1857SOL     MW 7428   4.001   7.598   7.807
 1858SOL     OW 7429   7.204   7.385   3.417
 1858SOL    HW1 7430   7.145   7.410   3.345
 1858SOL    HW2 7431   7.261   7.461   3.428
 1858SOL     MW 7432   7.204   7.398   3.409
 1859SOL     OW 7433   3.560   5.863   0.072
 1859SOL    HW1 7434   3.562   5.790   0.134
 1859SOL    HW2 7435   3.474   5.858   0.031
 1859SOL     MW 7436   3.549   5.853   0.075
 1860SOL     OW 7437   0.521   1.275   1.354
 1860SOL    HW1 7438   0.543   1.287   1.262
 1860SOL    HW2 7439   0.453   1.208   1.353
 1860SOL     MW 7440   0.515   1.268   1.342
 1861SOL     OW 7441   2.276   7.326   0.485
 1861SOL    HW1 7442   2.274   7.420   0.467
 1861SOL    HW2 7443   2.196   7.309   0.534
 1861SOL     MW 7444   2.266   7.336   0.489
 1862SOL     OW 7445   1.899   1.111   3.990
 1862SOL    HW1 7446   1.918   1.146   4.077
 1862SOL    HW2 7447   1.838   1.039   4.005
 1862SOL     MW 7448   1.894   1.106   4.003
 1863SOL     OW 7449   8.067   5.813   5.193
 1863SOL    HW1 7450   7.995   5.757   5.224
 1863SOL    HW2 7451   8.114   5.759   5.130
 1863SOL     MW 7452   8.064   5.799   5.189
 1864SOL     OW 7453   1.625   6.213   8.027
 1864SOL    HW1 7454   1.585   6.254   7.950
 1864SOL    HW2 7455   1.623   6.119   8.009
 1864SOL     MW 7456   1.620   6.206   8.015
 1865SOL     OW 7457   2.498   4.355   0.214
 1865SOL    HW1 7458   2.544   4.287   0.165
 1865SOL    HW2 7459   2.565   4.421   0.233
 1865SOL     MW 7460   2.513   4.355   0.210
 1866SOL     OW 7461   5.326   4.975   5.768
 1866SOL    HW1 7462   5.307   4.914   5.697
 1866SOL    HW2 7463   5.365   5.051   5.724
 1866SOL     MW 7464   5.328   4.977   5.753
 1867SOL     OW 7465   9.000   2.077   3.912
 1867SOL    HW1 7466   9.074   2.042   3.962
 1867SOL    HW2 7467   8.982   2.162   3.952
 1867SOL     MW 7468   9.007   2.083   3.923
 1868SOL     OW 7469   2.310   4.458   1.903
 1868SOL    HW1 7470   2.312   4.366   1.875
 1868SOL    HW2 7471   2.349   4.506   1.830
 1868SOL     MW 7472   2.315   4.452   1.890
 1869SOL     OW 7473   0.727   7.059   3.692
 1869SOL    HW1 7474   0.769   6.985   3.650
 1869SOL    HW2 7475   0.634   7.039   3.689
 1869SOL     MW 7476   0.720   7.047   3.686
 1870SOL     OW 7477   6.295   5.002   6.058
 1870SOL    HW1 7478   6.319   5.018   5.966
 1870SOL    HW2 7479   6.378   5.009   6.106
 1870SOL     MW 7480   6.309   5.005   6.052
 1871SOL     OW 7481   1.959   0.102   9.352
 1871SOL    HW1 7482   1.891   0.142   9.297
 1871SOL    HW2 7483   1.911   0.045   9.411
 1871SOL     MW 7484   1.944   0.100   9.352
 1872SOL     OW 7485   6.358   6.669   1.939
 1872SOL    HW1 7486   6.284   6.686   1.881
 1872SOL    HW2 7487   6.320   6.628   2.016
 1872SOL     MW 7488   6.344   6.666   1.941
 1873SOL     OW 7489   5.517   7.718   9.138
 1873SOL    HW1 7490   5.454   7.741   9.207
 1873SOL    HW2 7491   5.571   7.796   9.128
 1873SOL     MW 7492   5.516   7.731   9.146
 1874SOL     OW 7493   7.713   2.653   0.179
 1874SOL    HW1 7494   7.745   2.690   0.262
 1874SOL    HW2 7495   7.777   2.681   0.114
 1874SOL     MW 7496   7.725   2.661   0.181
 1875SOL     OW 7497   8.808   0.081   7.115
 1875SOL    HW1 7498   8.876   0.042   7.060
 1875SOL    HW2 7499   8.739   0.015   7.117
 1875SOL     MW 7500   8.808   0.067   7.109
 1876SOL     OW 7501   6.090   6.829   7.173
 1876SOL    HW1 7502   6.155   6.804   7.108
 1876SOL    HW2 7503   6.102   6.924   7.183
 1876SOL     MW 7504   6.100   6.838   7.166
 1877SOL     OW 7505   1.537   2.204   4.745
 1877SOL    HW1 7506   1.615   2.254   4.769
 1877SOL    HW2 7507   1.505   2.168   4.827
 1877SOL     MW 7508   1.543   2.206   4.758
 1878SOL     OW 7509   6.839   7.152   1.152
 1878SOL    HW1 7510   6.930   7.182   1.152
 1878SOL    HW2 7511   6.793   7.215   1.207
 1878SOL     MW 7512   6.845   7.164   1.159
 1879SOL     OW 7513   6.409   0.165   1.608
 1879SOL    HW1 7514   6.474   0.136   1.544
 1879SOL    HW2 7515   6.452   0.155   1.693
 1879SOL     MW 7516   6.423   0.160   1.610
 1880SOL     OW 7517   8.011   5.797   7.529
 1880SOL    HW1 7518   8.028   5.873   7.473
 1880SOL    HW2 7519   7.921   5.808   7.558
 1880SOL     MW 7520   8.002   5.808   7.525
 1881SOL     OW 7521   3.259   2.262   7.960
 1881SOL    HW1 7522   3.226   2.174   7.939
 1881SOL    HW2 7523   3.335   2.272   7.902
 1881SOL     MW 7524   3.264   2.252   7.950
 1882SOL     OW 7525   9.385   5.900   1.460
 1882SOL    HW1 7526   9.440   5.971   1.493
 1882SOL    HW2 7527   9.446   5.844   1.410
 1882SOL     MW 7528   9.400   5.902   1.458
 1883SOL     OW 7529   3.546   9.620   3.025
 1883SOL    HW1 7530   3.557   9.534   3.066
 1883SOL    HW2 7531   3.632   9.661   3.033
 1883SOL     MW 7532   3.558   9.614   3.032
 1884SOL     OW 7533   7.562   7.119   9.117
 1884SOL    HW1 7534   7.608   7.041   9.149
 1884SOL    HW2 7535   7.469   7.096   9.124
 1884SOL     MW 7536   7.556   7.106   9.122
 1885SOL     OW 7537   6.892   2.085   7.724
 1885SOL    HW1 7538   6.867   2.105   7.814
 1885SOL    HW2 7539   6.863   1.995   7.711
 1885SOL     MW 7540   6.885   2.076   7.734
 1886SOL     OW 7541   7.992   5.336   0.255
 1886SOL    HW1 7542   8.067   5.332   0.314
 1886SOL    HW2 7543   7.916   5.334   0.314
 1886SOL     MW 7544   7.992   5.335   0.270
 1887SOL     OW 7545   0.013   4.486   0.677
 1887SOL    HW1 7546  -0.055   4.441   0.727
 1887SOL    HW2 7547   0.073   4.417   0.650
 1887SOL     MW 7548   0.012   4.472   0.680
 1888SOL     OW 7549   9.673   3.938   6.010
 1888SOL    HW1 7550   9.702   3.916   6.099
 1888SOL    HW2 7551   9.584   3.970   6.021
 1888SOL     MW 7552   9.666   3.939   6.023
 1889SOL     OW 7553   5.849   3.197   8.544
 1889SOL    HW1 7554   5.938   3.175   8.513
 1889SOL    HW2 7555   5.798   3.205   8.463
 1889SOL     MW 7556   5.854   3.195   8.530
 1890SOL     OW 7557   3.159   6.124   8.657
 1890SOL    HW1 7558   3.154   6.030   8.678
 1890SOL    HW2 7559   3.113   6.167   8.728
 1890SOL     MW 7560   3.153   6.117   8.669
 1891SOL     OW 7561   6.107   4.279   1.796
 1891SOL    HW1 7562   6.048   4.221   1.748
 1891SOL    HW2 7563   6.174   4.221   1.832
 1891SOL     MW 7564   6.108   4.264   1.794
 1892SOL     OW 7565   4.379   3.486   8.331
 1892SOL    HW1 7566   4.400   3.527   8.247
 1892SOL    HW2 7567   4.309   3.424   8.311
 1892SOL     MW 7568   4.373   3.484   8.318
 1893SOL     OW 7569   2.582   5.652   5.991
 1893SOL    HW1 7570   2.515   5.692   5.936
 1893SOL    HW2 7571   2.627   5.726   6.032
 1893SOL     MW 7572   2.579   5.666   5.989
 1894SOL     OW 7573   5.877   3.111   3.157
 1894SOL    HW1 7574   5.873   3.173   3.085
 1894SOL    HW2 7575   5.930   3.154   3.224
 1894SOL     MW 7576   5.883   3.124   3.157
 1895SOL     OW 7577   8.763   8.867   1.508
 1895SOL    HW1 7578   8.815   8.798   1.549
 1895SOL    HW2 7579   8.827   8.930   1.476
 1895SOL     MW 7580   8.778   8.866   1.509
 1896SOL     OW 7581   6.649   2.273   0.586
 1896SOL    HW1 7582   6.635   2.227   0.504
 1896SOL    HW2 7583   6.586   2.345   0.585
 1896SOL     MW 7584   6.639   2.277   0.576
 1897SOL     OW 7585   2.419   4.770   7.881
 1897SOL    HW1 7586   2.469   4.826   7.822
 1897SOL    HW2 7587   2.331   4.809   7.882
 1897SOL     MW 7588   2.414   4.782   7.874
 1898SOL     OW 7589   1.044   1.595   1.776
 1898SOL    HW1 7590   0.995   1.536   1.834
 1898SOL    HW2 7591   1.034   1.558   1.689
 1898SOL     MW 7592   1.036   1.583   1.773
 1899SOL     OW 7593   0.685   0.911   4.991
 1899SOL    HW1 7594   0.643   0.981   4.942
 1899SOL    HW2 7595   0.753   0.954   5.042
 1899SOL     MW 7596   0.688   0.925   4.991
 1900SOL     OW 7597   0.498   6.981   3.983
 1900SOL    HW1 7598   0.567   7.048   3.978
 1900SOL    HW2 7599   0.424   7.026   4.023
 1900SOL     MW 7600   0.498   6.995   3.987
 1901SOL     OW 7601   3.037   6.228   8.885
 1901SOL    HW1 7602   2.955   6.252   8.928
 1901SOL    HW2 7603   3.102   6.285   8.926
 1901SOL     MW 7604   3.035   6.239   8.896
 1902SOL     OW 7605   2.462   9.510   5.646
 1902SOL    HW1 7606   2.413   9.430   5.665
 1902SOL    HW2 7607   2.448   9.566   5.722
 1902SOL     MW 7608   2.454   9.507   5.658
 1903SOL     OW 7609   3.949   4.147   3.308
 1903SOL    HW1 7610   3.874   4.181   3.258
 1903SOL    HW2 7611   3.920   4.060   3.336
 1903SOL     MW 7612   3.936   4.140   3.305
 1904SOL     OW 7613   2.742   1.691   9.724
 1904SOL    HW1 7614   2.701   1.607   9.745
 1904SOL    HW2 7615   2.689   1.727   9.653
 1904SOL     MW 7616   2.730   1.685   9.718
 1905SOL     OW 7617   7.633   2.892   0.047
 1905SOL    HW1 7618   7.548   2.901   0.004
 1905SOL    HW2 7619   7.624   2.816   0.104
 1905SOL     MW 7620   7.621   2.884   0.049
 1906SOL     OW 7621   9.330   0.256   7.771
 1906SOL    HW1 7622   9.342   0.350   7.760
 1906SOL    HW2 7623   9.332   0.242   7.866
 1906SOL     MW 7624   9.332   0.266   7.782
 1907SOL     OW 7625   7.779   2.121   9.913
 1907SOL    HW1 7626   7.779   2.143  10.006
 1907SOL    HW2 7627   7.868   2.087   9.896
 1907SOL     MW 7628   7.791   2.119   9.922
 1908SOL     OW 7629   8.395   9.651   6.702
 1908SOL    HW1 7630   8.456   9.623   6.770
 1908SOL    HW2 7631   8.417   9.598   6.626
 1908SOL     MW 7632   8.406   9.641   6.701
 1909SOL     OW 7633   6.956   3.133   1.930
 1909SOL    HW1 7634   6.872   3.169   1.902
 1909SOL    HW2 7635   7.002   3.114   1.848
 1909SOL     MW 7636   6.951   3.135   1.916
 1910SOL     OW 7637   6.093   6.119   0.086
 1910SOL    HW1 7638   6.154   6.158   0.149
 1910SOL    HW2 7639   6.085   6.185   0.017
 1910SOL     MW 7640   6.100   6.133   0.085
 1911SOL     OW 7641   4.086   9.127   5.336
 1911SOL    HW1 7642   4.016   9.075   5.296
 1911SOL    HW2 7643   4.165   9.104   5.286
 1911SOL     MW 7644   4.087   9.117   5.324
 1912SOL     OW 7645   2.032   3.949   0.343
 1912SOL    HW1 7646   1.940   3.936   0.363
 1912SOL    HW2 7647   2.051   4.038   0.374
 1912SOL     MW 7648   2.023   3.959   0.350
 1913SOL     OW 7649   4.351  10.178   7.214
 1913SOL    HW1 7650   4.352  10.105   7.277
 1913SOL    HW2 7651   4.434  10.169   7.167
 1913SOL     MW 7652   4.362  10.167   7.216
 1914SOL     OW 7653   8.135   4.346   5.309
 1914SOL    HW1 7654   8.119   4.283   5.380
 1914SOL    HW2 7655   8.084   4.312   5.236
 1914SOL     MW 7656   8.127   4.333   5.309
 1915SOL     OW 7657   7.012   1.715   2.539
 1915SOL    HW1 7658   7.037   1.657   2.467
 1915SOL    HW2 7659   6.952   1.778   2.499
 1915SOL     MW 7660   7.007   1.716   2.524
 1916SOL     OW 7661   1.343   7.983   6.472
 1916SOL    HW1 7662   1.397   8.007   6.396
 1916SOL    HW2 7663   1.336   7.888   6.467
 1916SOL     MW 7664   1.349   7.974   6.461
 1917SOL     OW 7665   0.716   1.083   5.366
 1917SOL    HW1 7666   0.673   0.997   5.373
 1917SOL    HW2 7667   0.770   1.076   5.287
 1917SOL     MW 7668   0.717   1.071   5.356
 1918SOL     OW 7669   7.540   5.037   9.330
 1918SOL    HW1 7670   7.532   5.017   9.237
 1918SOL    HW2 7671   7.632   5.018   9.351
 1918SOL     MW 7672   7.551   5.032   9.321
 1919SOL     OW 7673   2.210   1.166   5.896
 1919SOL    HW1 7674   2.226   1.100   5.829
 1919SOL    HW2 7675   2.276   1.149   5.963
 1919SOL     MW 7676   2.220   1.156   5.896
 1920SOL     OW 7677   4.287   0.918   7.635
 1920SOL    HW1 7678   4.245   0.835   7.658
 1920SOL    HW2 7679   4.307   0.958   7.720
 1920SOL     MW 7680   4.285   0.912   7.649
 1921SOL     OW 7681   8.535   4.776   9.458
 1921SOL    HW1 7682   8.491   4.733   9.532
 1921SOL    HW2 7683   8.464   4.808   9.403
 1921SOL     MW 7684   8.521   4.775   9.461
 1922SOL     OW 7685   9.842   0.075   6.601
 1922SOL    HW1 7686   9.894   0.155   6.611
 1922SOL    HW2 7687   9.766   0.088   6.658
 1922SOL     MW 7688   9.839   0.087   6.610
 1923SOL     OW 7689   5.609   5.660   6.742
 1923SOL    HW1 7690   5.679   5.603   6.710
 1923SOL    HW2 7691   5.529   5.619   6.710
 1923SOL     MW 7692   5.608   5.648   6.733
 1924SOL     OW 7693   6.863   9.415   1.580
 1924SOL    HW1 7694   6.916   9.421   1.502
 1924SOL    HW2 7695   6.908   9.352   1.636
 1924SOL     MW 7696   6.875   9.408   1.577
 1925SOL     OW 7697   2.507   6.843   7.785
 1925SOL    HW1 7698   2.443   6.846   7.857
 1925SOL    HW2 7699   2.560   6.766   7.803
 1925SOL     MW 7700   2.505   6.834   7.796
 1926SOL     OW 7701   0.015   9.670   8.217
 1926SOL    HW1 7702   0.073   9.617   8.162
 1926SOL    HW2 7703  -0.067   9.676   8.167
 1926SOL     MW 7704   0.012   9.664   8.204
 1927SOL     OW 7705   9.890   0.399   2.579
 1927SOL    HW1 7706   9.895   0.429   2.670
 1927SOL    HW2 7707   9.821   0.453   2.540
 1927SOL     MW 7708   9.882   0.409   2.586
 1928SOL     OW 7709   3.958   2.913   8.820
 1928SOL    HW1 7710   4.041   2.956   8.801
 1928SOL    HW2 7711   3.929   2.951   8.903
 1928SOL     MW 7712   3.965   2.923   8.828
 1929SOL     OW 7713   0.001   2.802   7.683
 1929SOL    HW1 7714   0.005   2.835   7.773
 1929SOL    HW2 7715   0.061   2.859   7.634
 1929SOL     MW 7716   0.009   2.814   7.688
 1930SOL     OW 7717   5.240   1.483   6.255
 1930SOL    HW1 7718   5.275   1.490   6.344
 1930SOL    HW2 7719   5.315   1.501   6.198
 1930SOL     MW 7720   5.254   1.487   6.259
 1931SOL     OW 7721   8.070   4.048   3.265
 1931SOL    HW1 7722   8.061   4.139   3.292
 1931SOL    HW2 7723   8.023   3.998   3.332
 1931SOL     MW 7724   8.063   4.053   3.277
 1932SOL     OW 7725   8.184   6.394   6.905
 1932SOL    HW1 7726   8.229   6.439   6.834
 1932SOL    HW2 7727   8.209   6.302   6.896
 1932SOL     MW 7728   8.193   6.388   6.895
 1933SOL     OW 7729   3.840   8.422  10.007
 1933SOL    HW1 7730   3.810   8.334  10.030
 1933SOL    HW2 7731   3.875   8.413   9.919
 1933SOL     MW 7732   3.841   8.410   9.999
 1934SOL     OW 7733   5.019   7.114   8.007
 1934SOL    HW1 7734   5.007   7.019   8.008
 1934SOL    HW2 7735   5.114   7.127   7.997
 1934SOL     MW 7736   5.030   7.104   8.006
 1935SOL     OW 7737   1.759   2.342   4.818
 1935SOL    HW1 7738   1.841   2.310   4.855
 1935SOL    HW2 7739   1.768   2.437   4.816
 1935SOL     MW 7740   1.770   2.350   4.822
 1936SOL     OW 7741   7.158   3.223   2.373
 1936SOL    HW1 7742   7.132   3.246   2.284
 1936SOL    HW2 7743   7.252   3.243   2.377
 1936SOL     MW 7744   7.167   3.228   2.362
 1937SOL     OW 7745   2.710   8.456   0.930
 1937SOL    HW1 7746   2.783   8.515   0.908
 1937SOL    HW2 7747   2.741   8.369   0.907
 1937SOL     MW 7748   2.723   8.453   0.924
 1938SOL     OW 7749   4.993   3.110   0.297
 1938SOL    HW1 7750   5.029   3.191   0.260
 1938SOL    HW2 7751   5.023   3.111   0.388
 1938SOL     MW 7752   5.002   3.121   0.304
 1939SOL     OW 7753   5.175   4.933   8.456
 1939SOL    HW1 7754   5.129   5.017   8.449
 1939SOL    HW2 7755   5.137   4.879   8.387
 1939SOL     MW 7756   5.164   4.937   8.446
 1940SOL     OW 7757   3.599   3.461   5.289
 1940SOL    HW1 7758   3.677   3.452   5.234
 1940SOL    HW2 7759   3.564   3.373   5.295
 1940SOL     MW 7760   3.605   3.449   5.283
 1941SOL     OW 7761   4.610   3.341   9.798
 1941SOL    HW1 7762   4.685   3.382   9.839
 1941SOL    HW2 7763   4.617   3.365   9.705
 1941SOL     MW 7764   4.620   3.349   9.791
 1942SOL     OW 7765   4.667   4.962   3.143
 1942SOL    HW1 7766   4.631   4.987   3.228
 1942SOL    HW2 7767   4.684   4.868   3.151
 1942SOL     MW 7768   4.664   4.953   3.155
 1943SOL     OW 7769  10.077   9.712   0.705
 1943SOL    HW1 7770  10.120   9.674   0.781
 1943SOL    HW2 7771  10.035   9.637   0.662
 1943SOL     MW 7772  10.077   9.697   0.709
 1944SOL     OW 7773   2.816   3.776   8.596
 1944SOL    HW1 7774   2.759   3.779   8.520
 1944SOL    HW2 7775   2.894   3.825   8.570
 1944SOL     MW 7776   2.818   3.783   8.583
 1945SOL     OW 7777   3.652   9.292   7.976
 1945SOL    HW1 7778   3.633   9.382   8.003
 1945SOL    HW2 7779   3.570   9.245   7.989
 1945SOL     MW 7780   3.639   9.298   7.981
 1946SOL     OW 7781   0.922   5.891   5.472
 1946SOL    HW1 7782   0.947   5.918   5.561
 1946SOL    HW2 7783   0.985   5.935   5.415
 1946SOL     MW 7784   0.934   5.900   5.476
 1947SOL     OW 7785   9.102   0.062   0.592
 1947SOL    HW1 7786   9.030   0.097   0.539
 1947SOL    HW2 7787   9.085   0.096   0.680
 1947SOL     MW 7788   9.091   0.071   0.597
 1948SOL     OW 7789   6.839   3.590   9.339
 1948SOL    HW1 7790   6.803   3.591   9.428
 1948SOL    HW2 7791   6.777   3.642   9.288
 1948SOL     MW 7792   6.826   3.597   9.344
 1949SOL     OW 7793   3.620   8.810  10.134
 1949SOL    HW1 7794   3.620   8.727  10.086
 1949SOL    HW2 7795   3.545   8.859  10.099
 1949SOL     MW 7796   3.610   8.805  10.124
 1950SOL     OW 7797   6.460   1.272   4.235
 1950SOL    HW1 7798   6.452   1.193   4.288
 1950SOL    HW2 7799   6.551   1.299   4.245
 1950SOL     MW 7800   6.471   1.266   4.243
 1951SOL     OW 7801   0.153   2.708   0.079
 1951SOL    HW1 7802   0.057   2.702   0.080
 1951SOL    HW2 7803   0.173   2.775   0.144
 1951SOL     MW 7804   0.143   2.716   0.087
 1952SOL     OW 7805   2.617   1.721   2.113
 1952SOL    HW1 7806   2.581   1.693   2.029
 1952SOL    HW2 7807   2.579   1.660   2.177
 1952SOL     MW 7808   2.608   1.709   2.111
 1953SOL     OW 7809   6.468   3.193   7.893
 1953SOL    HW1 7810   6.376   3.172   7.910
 1953SOL    HW2 7811   6.492   3.137   7.820
 1953SOL     MW 7812   6.459   3.183   7.886
 1954SOL     OW 7813   5.249   0.338   2.061
 1954SOL    HW1 7814   5.179   0.360   1.999
 1954SOL    HW2 7815   5.242   0.404   2.129
 1954SOL     MW 7816   5.240   0.349   2.062
 1955SOL     OW 7817   3.817   4.038   5.272
 1955SOL    HW1 7818   3.813   3.982   5.350
 1955SOL    HW2 7819   3.907   4.072   5.272
 1955SOL     MW 7820   3.828   4.035   5.282
 1956SOL     OW 7821   0.197   8.530   3.541
 1956SOL    HW1 7822   0.113   8.484   3.553
 1956SOL    HW2 7823   0.239   8.484   3.469
 1956SOL     MW 7824   0.191   8.518   3.533
 1957SOL     OW 7825   5.165   6.858   0.405
 1957SOL    HW1 7826   5.249   6.862   0.449
 1957SOL    HW2 7827   5.187   6.859   0.311
 1957SOL     MW 7828   5.178   6.859   0.398
 1958SOL     OW 7829  10.099   1.370   7.311
 1958SOL    HW1 7830  10.146   1.313   7.373
 1958SOL    HW2 7831  10.036   1.417   7.365
 1958SOL     MW 7832  10.097   1.368   7.326
 1959SOL     OW 7833   1.798   9.157   1.628
 1959SOL    HW1 7834   1.856   9.181   1.556
 1959SOL    HW2 7835   1.713   9.145   1.587
 1959SOL     MW 7836   1.795   9.158   1.614
 1960SOL     OW 7837   5.402   2.501   5.944
 1960SOL    HW1 7838   5.337   2.435   5.966
 1960SOL    HW2 7839   5.358   2.558   5.881
 1960SOL     MW 7840   5.388   2.500   5.939
 1961SOL     OW 7841   0.912   6.242   4.813
 1961SOL    HW1 7842   0.817   6.247   4.825
 1961SOL    HW2 7843   0.929   6.151   4.791
 1961SOL     MW 7844   0.902   6.231   4.812
 1962SOL     OW 7845  10.142   6.243   5.515
 1962SOL    HW1 7846  10.192   6.287   5.446
 1962SOL    HW2 7847  10.153   6.150   5.498
 1962SOL     MW 7848  10.150   6.237   5.504
 1963SOL     OW 7849   6.491   1.203   3.452
 1963SOL    HW1 7850   6.554   1.257   3.404
 1963SOL    HW2 7851   6.503   1.115   3.416
 1963SOL     MW 7852   6.501   1.198   3.441
 1964SOL     OW 7853   4.648   3.417   9.536
 1964SOL    HW1 7854   4.662   3.504   9.497
 1964SOL    HW2 7855   4.707   3.360   9.487
 1964SOL     MW 7856   4.657   3.421   9.525
 1965SOL     OW 7857   6.981   6.643   9.986
 1965SOL    HW1 7858   6.915   6.703   9.952
 1965SOL    HW2 7859   7.063   6.672   9.946
 1965SOL     MW 7860   6.983   6.655   9.977
 1966SOL     OW 7861   9.344   6.386   8.544
 1966SOL    HW1 7862   9.362   6.424   8.630
 1966SOL    HW2 7863   9.279   6.317   8.562
 1966SOL     MW 7864   9.338   6.382   8.558
 1967SOL     OW 7865   0.608   0.230   3.881
 1967SOL    HW1 7866   0.617   0.281   3.962
 1967SOL    HW2 7867   0.629   0.141   3.907
 1967SOL     MW 7868   0.612   0.225   3.895
 1968SOL     OW 7869   3.217   5.181   9.535
 1968SOL    HW1 7870   3.235   5.180   9.441
 1968SOL    HW2 7871   3.178   5.267   9.551
 1968SOL     MW 7872   3.214   5.192   9.525
 1969SOL     OW 7873   2.850   5.303   0.575
 1969SOL    HW1 7874   2.769   5.258   0.551
 1969SOL    HW2 7875   2.920   5.241   0.554
 1969SOL     MW 7876   2.849   5.289   0.569
 1970SOL     OW 7877   3.753   8.991   1.542
 1970SOL    HW1 7878   3.704   9.014   1.621
 1970SOL    HW2 7879   3.733   9.060   1.480
 1970SOL     MW 7880   3.744   9.002   1.544
 1971SOL     OW 7881   4.253   0.803   3.769
 1971SOL    HW1 7882   4.309   0.743   3.818
 1971SOL    HW2 7883   4.292   0.806   3.681
 1971SOL     MW 7884   4.265   0.796   3.764
 1972SOL     OW 7885   7.185   2.375   6.865
 1972SOL    HW1 7886   7.144   2.440   6.807
 1972SOL    HW2 7887   7.201   2.300   6.808
 1972SOL     MW 7888   7.182   2.374   6.850
 1973SOL     OW 7889   0.869   7.195   9.766
 1973SOL    HW1 7890   0.878   7.285   9.795
 1973SOL    HW2 7891   0.791   7.196   9.710
 1973SOL     MW 7892   0.860   7.206   9.762
 1974SOL     OW 7893   6.869   9.873   9.426
 1974SOL    HW1 7894   6.960   9.854   9.404
 1974SOL    HW2 7895   6.873   9.909   9.515
 1974SOL     MW 7896   6.881   9.875   9.435
 1975SOL     OW 7897   5.901   0.632   2.002
 1975SOL    HW1 7898   5.900   0.727   2.007
 1975SOL    HW2 7899   5.816   0.609   1.963
 1975SOL     MW 7900   5.890   0.641   1.998
 1976SOL     OW 7901   9.579   7.051   0.629
 1976SOL    HW1 7902   9.637   6.996   0.577
 1976SOL    HW2 7903   9.504   7.068   0.571
 1976SOL     MW 7904   9.576   7.046   0.615
 1977SOL     OW 7905   7.369   5.755   9.096
 1977SOL    HW1 7906   7.358   5.827   9.159
 1977SOL    HW2 7907   7.289   5.703   9.105
 1977SOL     MW 7908   7.357   5.758   9.105
 1978SOL     OW 7909   3.033   8.819   4.516
 1978SOL    HW1 7910   3.058   8.823   4.608
 1978SOL    HW2 7911   2.950   8.866   4.512
 1978SOL     MW 7912   3.026   8.826   4.527
 1979SOL     OW 7913   3.515   2.060   3.079
 1979SOL    HW1 7914   3.591   2.092   3.031
 1979SOL    HW2 7915   3.549   1.987   3.131
 1979SOL     MW 7916   3.529   2.055   3.079
 1980SOL     OW 7917   9.299   7.113   3.964
 1980SOL    HW1 7918   9.296   7.086   3.872
 1980SOL    HW2 7919   9.357   7.050   4.006
 1980SOL     MW 7920   9.306   7.101   3.958
 1981SOL     OW 7921   7.763   9.469   6.677
 1981SOL    HW1 7922   7.853   9.495   6.697
 1981SOL    HW2 7923   7.753   9.488   6.584
 1981SOL     MW 7924   7.773   9.475   6.668
 1982SOL     OW 7925   3.664   7.204   7.989
 1982SOL    HW1 7926   3.708   7.187   7.905
 1982SOL    HW2 7927   3.638   7.117   8.020
 1982SOL     MW 7928   3.666   7.191   7.982
 1983SOL     OW 7929   5.579   1.069   3.470
 1983SOL    HW1 7930   5.671   1.084   3.451
 1983SOL    HW2 7931   5.546   1.155   3.497
 1983SOL     MW 7932   5.586   1.082   3.471
 1984SOL     OW 7933   0.245   1.821   1.204
 1984SOL    HW1 7934   0.256   1.841   1.297
 1984SOL    HW2 7935   0.267   1.728   1.197
 1984SOL     MW 7936   0.249   1.811   1.215
 1985SOL     OW 7937   2.547   8.364   3.742
 1985SOL    HW1 7938   2.578   8.279   3.771
 1985SOL    HW2 7939   2.585   8.375   3.655
 1985SOL     MW 7940   2.556   8.355   3.735
 1986SOL     OW 7941   8.461   7.687   7.805
 1986SOL    HW1 7942   8.511   7.737   7.740
 1986SOL    HW2 7943   8.374   7.728   7.805
 1986SOL     MW 7944   8.456   7.699   7.797
 1987SOL     OW 7945   1.295   6.486   7.928
 1987SOL    HW1 7946   1.290   6.454   8.018
 1987SOL    HW2 7947   1.208   6.520   7.910
 1987SOL     MW 7948   1.283   6.486   7.937
 1988SOL     OW 7949   5.668   3.205   8.044
 1988SOL    HW1 7950   5.681   3.210   8.138
 1988SOL    HW2 7951   5.710   3.123   8.018
 1988SOL     MW 7952   5.675   3.195   8.052
 1989SOL     OW 7953   3.310   5.856  10.124
 1989SOL    HW1 7954   3.241   5.850  10.190
 1989SOL    HW2 7955   3.288   5.934  10.073
 1989SOL     MW 7956   3.299   5.865  10.126
 1990SOL     OW 7957   8.294   8.595   6.317
 1990SOL    HW1 7958   8.336   8.544   6.247
 1990SOL    HW2 7959   8.212   8.549   6.334
 1990SOL     MW 7960   8.289   8.583   6.310
 1991SOL     OW 7961   4.399   1.939   3.674
 1991SOL    HW1 7962   4.375   1.851   3.644
 1991SOL    HW2 7963   4.422   1.927   3.767
 1991SOL     MW 7964   4.399   1.926   3.682
 1992SOL     OW 7965   7.260   6.379  10.160
 1992SOL    HW1 7966   7.334   6.392  10.101
 1992SOL    HW2 7967   7.183   6.380  10.103
 1992SOL     MW 7968   7.259   6.381  10.145
 1993SOL     OW 7969   0.418   4.739   5.582
 1993SOL    HW1 7970   0.454   4.790   5.509
 1993SOL    HW2 7971   0.463   4.773   5.659
 1993SOL     MW 7972   0.428   4.750   5.582
 1994SOL     OW 7973   8.445   0.571   2.944
 1994SOL    HW1 7974   8.495   0.651   2.929
 1994SOL    HW2 7975   8.358   0.590   2.908
 1994SOL     MW 7976   8.440   0.584   2.937
 1995SOL     OW 7977   0.923   5.634   7.158
 1995SOL    HW1 7978   0.994   5.574   7.179
 1995SOL    HW2 7979   0.919   5.635   7.063
 1995SOL     MW 7980   0.932   5.627   7.149
 1996SOL     OW 7981   1.696   5.041   4.794
 1996SOL    HW1 7982   1.616   5.067   4.839
 1996SOL    HW2 7983   1.671   5.037   4.702
 1996SOL     MW 7984   1.683   5.044   4.788
 1997SOL     OW 7985   8.464   2.199   6.983
 1997SOL    HW1 7986   8.377   2.213   7.020
 1997SOL    HW2 7987   8.524   2.215   7.057
 1997SOL     MW 7988   8.461   2.203   6.997
 1998SOL     OW 7989   7.309   5.020   9.485
 1998SOL    HW1 7990   7.336   4.986   9.570
 1998SOL    HW2 7991   7.386   5.013   9.430
 1998SOL     MW 7992   7.322   5.015   9.489
 1999SOL     OW 7993   2.034   2.167   0.215
 1999SOL    HW1 7994   1.998   2.081   0.233
 1999SOL    HW2 7995   1.965   2.213   0.168
 1999SOL     MW 7996   2.021   2.162   0.211
 2000SOL     OW 7997   9.325   4.374   1.783
 2000SOL    HW1 7998   9.329   4.400   1.875
 2000SOL    HW2 7999   9.410   4.334   1.766
 2000SOL     MW 8000   9.336   4.372   1.793
 2001SOL     OW 8001   6.793   0.482   6.811
 2001SOL    HW1 8002   6.835   0.568   6.809
 2001SOL    HW2 8003   6.726   0.490   6.879
 2001SOL     MW 8004   6.789   0.494   6.819
 2002SOL     OW 8005   0.011   1.048   9.816
 2002SOL    HW1 8006   0.055   1.133   9.814
 2002SOL    HW2 8007   0.075   0.988   9.852
 2002SOL     MW 8008   0.025   1.051   9.821
 2003SOL     OW 8009   0.628   2.378   7.615
 2003SOL    HW1 8010   0.626   2.286   7.590
 2003SOL    HW2 8011   0.536   2.404   7.617
 2003SOL     MW 8012   0.616   2.370   7.612
 2004SOL     OW 8013   3.590   1.908   4.748
 2004SOL    HW1 8014   3.553   1.853   4.817
 2004SOL    HW2 8015   3.549   1.877   4.667
 2004SOL     MW 8016   3.580   1.897   4.747
 2005SOL     OW 8017   5.924   0.209   9.888
 2005SOL    HW1 8018   5.928   0.115   9.906
 2005SOL    HW2 8019   5.917   0.214   9.792
 2005SOL     MW 8020   5.924   0.197   9.878
 2006SOL     OW 8021   4.870   5.970   1.444
 2006SOL    HW1 8022   4.922   5.955   1.523
 2006SOL    HW2 8023   4.779   5.970   1.475
 2006SOL     MW 8024   4.865   5.968   1.458
 2007SOL     OW 8025   7.716   4.877   0.321
 2007SOL    HW1 8026   7.661   4.832   0.257
 2007SOL    HW2 8027   7.803   4.878   0.280
 2007SOL     MW 8028   7.720   4.871   0.307
 2008SOL     OW 8029   7.233   2.466   9.243
 2008SOL    HW1 8030   7.138   2.452   9.240
 2008SOL    HW2 8031   7.269   2.380   9.267
 2008SOL     MW 8032   7.226   2.453   9.246
 2009SOL     OW 8033   9.345   0.294   3.851
 2009SOL    HW1 8034   9.305   0.244   3.780
 2009SOL    HW2 8035   9.430   0.322   3.816
 2009SOL     MW 8036   9.351   0.291   3.837
 2010SOL     OW 8037   6.828   6.204   4.983
 2010SOL    HW1 8038   6.913   6.237   4.956
 2010SOL    HW2 8039   6.810   6.133   4.922
 2010SOL     MW 8040   6.837   6.199   4.972
 2011SOL     OW 8041   7.551   7.275   9.341
 2011SOL    HW1 8042   7.571   7.209   9.275
 2011SOL    HW2 8043   7.533   7.355   9.292
 2011SOL     MW 8044   7.551   7.277   9.326
 2012SOL     OW 8045   0.696   3.558   3.780
 2012SOL    HW1 8046   0.654   3.575   3.865
 2012SOL    HW2 8047   0.757   3.487   3.798
 2012SOL     MW 8048   0.698   3.551   3.793
 2013SOL     OW 8049   6.162   9.335   8.148
 2013SOL    HW1 8050   6.206   9.418   8.166
 2013SOL    HW2 8051   6.183   9.316   8.056
 2013SOL     MW 8052   6.170   9.343   8.138
 2014SOL     OW 8053   7.452   6.392   7.631
 2014SOL    HW1 8054   7.393   6.337   7.581
 2014SOL    HW2 8055   7.539   6.373   7.595
 2014SOL     MW 8056   7.456   6.383   7.620
 2015SOL     OW 8057   8.226   8.552   4.663
 2015SOL    HW1 8058   8.303   8.595   4.627
 2015SOL    HW2 8059   8.152   8.601   4.627
 2015SOL     MW 8060   8.226   8.564   4.654
 2016SOL     OW 8061   8.191   3.082   3.750
 2016SOL    HW1 8062   8.170   3.160   3.698
 2016SOL    HW2 8063   8.272   3.104   3.795
 2016SOL     MW 8064   8.199   3.095   3.749
 2017SOL     OW 8065   2.061   9.284   2.598
 2017SOL    HW1 8066   2.080   9.368   2.641
 2017SOL    HW2 8067   2.146   9.251   2.571
 2017SOL     MW 8068   2.074   9.291   2.600
 2018SOL     OW 8069   5.909   1.423   1.142
 2018SOL    HW1 8070   5.984   1.470   1.179
 2018SOL    HW2 8071   5.903   1.343   1.193
 2018SOL     MW 8072   5.918   1.419   1.153
 2019SOL     OW 8073   6.611   7.450   3.957
 2019SOL    HW1 8074   6.568   7.371   3.924
 2019SOL    HW2 8075   6.589   7.517   3.892
 2019SOL     MW 8076   6.603   7.448   3.944
 2020SOL     OW 8077   3.592   4.074   1.343
 2020SOL    HW1 8078   3.666   4.013   1.333
 2020SOL    HW2 8079   3.607   4.141   1.276
 2020SOL     MW 8080   3.604   4.075   1.333
 2021SOL     OW 8081   3.305   1.815  -0.019
 2021SOL    HW1 8082   3.224   1.765  -0.006
 2021SOL    HW2 8083   3.368   1.773   0.040
 2021SOL     MW 8084   3.303   1.803  -0.010
 2022SOL     OW 8085   9.826   8.493   9.255
 2022SOL    HW1 8086   9.898   8.518   9.197
 2022SOL    HW2 8087   9.863   8.429   9.315
 2022SOL     MW 8088   9.840   8.488   9.255
 2023SOL     OW 8089   0.457   8.498   6.054
 2023SOL    HW1 8090   0.482   8.582   6.092
 2023SOL    HW2 8091   0.540   8.456   6.032
 2023SOL     MW 8092   0.471   8.504   6.056
 2024SOL     OW 8093   1.208   3.825   7.235
 2024SOL    HW1 8094   1.210   3.901   7.178
 2024SOL    HW2 8095   1.277   3.840   7.300
 2024SOL     MW 8096   1.217   3.836   7.236
 2025SOL     OW 8097   8.878   2.536   1.147
 2025SOL    HW1 8098   8.921   2.457   1.115
 2025SOL    HW2 8099   8.785   2.522   1.129
 2025SOL     MW 8100   8.872   2.524   1.140
 2026SOL     OW 8101   4.419   1.290   9.709
 2026SOL    HW1 8102   4.344   1.301   9.650
 2026SOL    HW2 8103   4.486   1.349   9.674
 2026SOL     MW 8104   4.418   1.299   9.697
 2027SOL     OW 8105   9.490   8.014   1.515
 2027SOL    HW1 8106   9.443   7.967   1.446
 2027SOL    HW2 8107   9.448   7.985   1.596
 2027SOL     MW 8108   9.478   8.004   1.516
 2028SOL     OW 8109   9.152   7.241   3.297
 2028SOL    HW1 8110   9.213   7.314   3.294
 2028SOL    HW2 8111   9.177   7.192   3.376
 2028SOL     MW 8112   9.163   7.244   3.307
 2029SOL     OW 8113   8.718   1.258   6.261
 2029SOL    HW1 8114   8.806   1.228   6.237
 2029SOL    HW2 8115   8.678   1.284   6.177
 2029SOL     MW 8116   8.724   1.258   6.247
 2030SOL     OW 8117   5.375   9.104   5.084
 2030SOL    HW1 8118   5.409   9.183   5.125
 2030SOL    HW2 8119   5.452   9.051   5.063
 2030SOL     MW 8120   5.389   9.107   5.086
 2031SOL     OW 8121  10.046   9.383   2.406
 2031SOL    HW1 8122   9.954   9.359   2.391
 2031SOL    HW2 8123  10.095   9.316   2.358
 2031SOL     MW 8124  10.040   9.371   2.398
 2032SOL     OW 8125   0.723  10.145   9.306
 2032SOL    HW1 8126   0.641  10.193   9.289
 2032SOL    HW2 8127   0.726  10.135   9.401
 2032SOL     MW 8128   0.713  10.150   9.316
 2033SOL     OW 8129   9.466   3.152   1.546
 2033SOL    HW1 8130   9.418   3.174   1.466
 2033SOL    HW2 8131   9.499   3.064   1.530
 2033SOL     MW 8132   9.464   3.143   1.534
 2034SOL     OW 8133   1.438   5.890   6.066
 2034SOL    HW1 8134   1.384   5.970   6.060
 2034SOL    HW2 8135   1.517   5.918   6.113
 2034SOL     MW 8136   1.441   5.904   6.071
 2035SOL     OW 8137   9.021   2.095   9.229
 2035SOL    HW1 8138   8.934   2.054   9.233
 2035SOL    HW2 8139   9.057   2.066   9.145
 2035SOL     MW 8140   9.015   2.086   9.219
 2036SOL     OW 8141   4.453   8.002   7.421
 2036SOL    HW1 8142   4.478   8.017   7.512
 2036SOL    HW2 8143   4.380   8.063   7.406
 2036SOL     MW 8144   4.447   8.012   7.431
 2037SOL     OW 8145   1.155   0.093   9.164
 2037SOL    HW1 8146   1.205   0.038   9.226
 2037SOL    HW2 8147   1.075   0.043   9.148
 2037SOL     MW 8148   1.152   0.079   9.170
 2038SOL     OW 8149   1.777   6.068   2.279
 2038SOL    HW1 8150   1.762   6.024   2.195
 2038SOL    HW2 8151   1.788   5.996   2.342
 2038SOL     MW 8152   1.776   6.053   2.276
 2039SOL     OW 8153   6.054   7.268   9.098
 2039SOL    HW1 8154   5.980   7.293   9.153
 2039SOL    HW2 8155   6.070   7.176   9.120
 2039SOL     MW 8156   6.047   7.259   9.108
 2040SOL     OW 8157   1.089   8.781   0.305
 2040SOL    HW1 8158   1.005   8.772   0.260
 2040SOL    HW2 8159   1.119   8.691   0.316
 2040SOL     MW 8160   1.082   8.768   0.301
 2041SOL     OW 8161   1.579   1.508   0.600
 2041SOL    HW1 8162   1.667   1.528   0.633
 2041SOL    HW2 8163   1.577   1.413   0.593
 2041SOL     MW 8164   1.590   1.499   0.603
 2042SOL     OW 8165   7.503   8.650   4.646
 2042SOL    HW1 8166   7.558   8.632   4.723
 2042SOL    HW2 8167   7.524   8.740   4.622
 2042SOL     MW 8168   7.513   8.659   4.653
 2043SOL     OW 8169   0.835   1.377   2.295
 2043SOL    HW1 8170   0.833   1.365   2.200
 2043SOL    HW2 8171   0.756   1.334   2.327
 2043SOL     MW 8172   0.825   1.370   2.287
 2044SOL     OW 8173   9.138   0.205   1.817
 2044SOL    HW1 8174   9.167   0.158   1.895
 2044SOL    HW2 8175   9.123   0.295   1.847
 2044SOL     MW 8176   9.140   0.210   1.831
 2045SOL     OW 8177   0.064   1.564   0.025
 2045SOL    HW1 8178   0.059   1.522  -0.061
 2045SOL    HW2 8179   0.030   1.498   0.085
 2045SOL     MW 8180   0.059   1.551   0.021
 2046SOL     OW 8181   8.121   9.631   6.746
 2046SOL    HW1 8182   8.095   9.723   6.756
 2046SOL    HW2 8183   8.216   9.635   6.732
 2046SOL     MW 8184   8.130   9.644   6.746
 2047SOL     OW 8185   5.981   9.898   9.038
 2047SOL    HW1 8186   5.983   9.803   9.044
 2047SOL    HW2 8187   5.941   9.917   8.953
 2047SOL     MW 8188   5.976   9.888   9.028
 2048SOL     OW 8189   8.282   9.503   4.945
 2048SOL    HW1 8190   8.268   9.493   4.851
 2048SOL    HW2 8191   8.378   9.504   4.955
 2048SOL     MW 8192   8.293   9.502   4.934
 2049SOL     OW 8193   8.336   0.416   1.473
 2049SOL    HW1 8194   8.432   0.413   1.479
 2049SOL    HW2 8195   8.311   0.324   1.461
 2049SOL     MW 8196   8.345   0.404   1.472
 2050SOL     OW 8197   9.379   6.865   0.273
 2050SOL    HW1 8198   9.293   6.835   0.244
 2050SOL    HW2 8199   9.360   6.919   0.350
 2050SOL     MW 8200   9.365   6.868   0.279
 2051SOL     OW 8201   0.438  10.126   6.081
 2051SOL    HW1 8202   0.363  10.167   6.124
 2051SOL    HW2 8203   0.408  10.038   6.058
 2051SOL     MW 8204   0.424  10.120   6.084
 2052SOL     OW 8205   8.672   4.905   9.910
 2052SOL    HW1 8206   8.653   4.934   9.821
 2052SOL    HW2 8207   8.704   4.984   9.955
 2052SOL     MW 8208   8.674   4.919   9.905
 2053SOL     OW 8209   4.456   4.070   3.218
 2053SOL    HW1 8210   4.472   4.017   3.295
 2053SOL    HW2 8211   4.371   4.111   3.233
 2053SOL     MW 8212   4.447   4.069   3.230
 2054SOL     OW 8213   1.530   3.812   9.768
 2054SOL    HW1 8214   1.471   3.881   9.798
 2054SOL    HW2 8215   1.510   3.737   9.823
 2054SOL     MW 8216   1.520   3.811   9.779
 2055SOL     OW 8217   3.237   1.261   5.654
 2055SOL    HW1 8218   3.250   1.292   5.743
 2055SOL    HW2 8219   3.210   1.339   5.605
 2055SOL     MW 8220   3.235   1.275   5.659
 2056SOL     OW 8221   1.137   1.428   4.975
 2056SOL    HW1 8222   1.226   1.444   5.005
 2056SOL    HW2 8223   1.097   1.515   4.970
 2056SOL     MW 8224   1.143   1.441   4.978
 2057SOL     OW 8225   8.491   6.214   2.813
 2057SOL    HW1 8226   8.532   6.135   2.846
 2057SOL    HW2 8227   8.505   6.279   2.882
 2057SOL     MW 8228   8.498   6.212   2.826
 2058SOL     OW 8229   8.517   4.583   6.762
 2058SOL    HW1 8230   8.446   4.527   6.729
 2058SOL    HW2 8231   8.538   4.640   6.688
 2058SOL     MW 8232   8.511   4.583   6.748
 2059SOL     OW 8233   7.327   2.254   0.914
 2059SOL    HW1 8234   7.355   2.301   0.836
 2059SOL    HW2 8235   7.235   2.232   0.898
 2059SOL     MW 8236   7.319   2.257   0.902
 2060SOL     OW 8237   2.500   6.557   5.959
 2060SOL    HW1 8238   2.539   6.476   5.990
 2060SOL    HW2 8239   2.498   6.547   5.864
 2060SOL     MW 8240   2.505   6.545   5.951
 2061SOL     OW 8241   6.803   0.213   9.492
 2061SOL    HW1 8242   6.804   0.123   9.461
 2061SOL    HW2 8243   6.733   0.255   9.442
 2061SOL     MW 8244   6.794   0.207   9.481
 2062SOL     OW 8245   7.100   2.954   2.367
 2062SOL    HW1 8246   7.067   2.945   2.277
 2062SOL    HW2 8247   7.121   3.047   2.375
 2062SOL     MW 8248   7.099   2.965   2.356
 2063SOL     OW 8249   7.770   7.777   7.050
 2063SOL    HW1 8250   7.750   7.686   7.073
 2063SOL    HW2 8251   7.756   7.782   6.956
 2063SOL     MW 8252   7.765   7.766   7.041
 2064SOL     OW 8253   3.975   4.753   6.190
 2064SOL    HW1 8254   4.044   4.695   6.160
 2064SOL    HW2 8255   3.914   4.695   6.236
 2064SOL     MW 8256   3.976   4.738   6.192
 2065SOL     OW 8257   8.517   3.299   0.150
 2065SOL    HW1 8258   8.521   3.371   0.086
 2065SOL    HW2 8259   8.471   3.229   0.104
 2065SOL     MW 8260   8.512   3.299   0.136
 2066SOL     OW 8261   3.239   2.179   3.467
 2066SOL    HW1 8262   3.322   2.221   3.446
 2066SOL    HW2 8263   3.175   2.220   3.409
 2066SOL     MW 8264   3.242   2.189   3.457
 2067SOL     OW 8265   7.098   8.680   2.212
 2067SOL    HW1 8266   7.125   8.649   2.125
 2067SOL    HW2 8267   7.042   8.611   2.246
 2067SOL     MW 8268   7.094   8.667   2.205
 2068SOL     OW 8269   4.843   1.027   1.619
 2068SOL    HW1 8270   4.933   1.032   1.652
 2068SOL    HW2 8271   4.849   1.063   1.530
 2068SOL     MW 8272   4.855   1.033   1.612
 2069SOL     OW 8273   3.809   2.933   8.586
 2069SOL    HW1 8274   3.724   2.967   8.611
 2069SOL    HW2 8275   3.858   2.925   8.668
 2069SOL     MW 8276   3.805   2.936   8.599
 2070SOL     OW 8277   6.536   4.261   6.910
 2070SOL    HW1 8278   6.572   4.305   6.987
 2070SOL    HW2 8279   6.601   4.276   6.841
 2070SOL     MW 8280   6.549   4.269   6.911
 2071SOL     OW 8281   8.615   5.986   2.915
 2071SOL    HW1 8282   8.564   5.904   2.917
 2071SOL    HW2 8283   8.696   5.962   2.869
 2071SOL     MW 8284   8.619   5.972   2.909
 2072SOL     OW 8285   9.496   7.459   8.502
 2072SOL    HW1 8286   9.510   7.367   8.477
 2072SOL    HW2 8287   9.436   7.493   8.435
 2072SOL     MW 8288   9.490   7.451   8.490
 2073SOL     OW 8289   7.193   8.086   0.190
 2073SOL    HW1 8290   7.229   8.006   0.151
 2073SOL    HW2 8291   7.211   8.076   0.283
 2073SOL     MW 8292   7.200   8.074   0.197
 2074SOL     OW 8293   3.378   3.952   2.103
 2074SOL    HW1 8294   3.330   4.024   2.144
 2074SOL    HW2 8295   3.406   3.897   2.176
 2074SOL     MW 8296   3.376   3.954   2.118
 2075SOL     OW 8297   5.168   0.092   4.752
 2075SOL    HW1 8298   5.224   0.016   4.765
 2075SOL    HW2 8299   5.218   0.148   4.692
 2075SOL     MW 8300   5.182   0.090   4.746
 2076SOL     OW 8301   0.861   4.865   6.751
 2076SOL    HW1 8302   0.858   4.793   6.815
 2076SOL    HW2 8303   0.915   4.932   6.794
 2076SOL     MW 8304   0.868   4.864   6.765
 2077SOL     OW 8305   1.594   5.117   4.051
 2077SOL    HW1 8306   1.577   5.115   3.957
 2077SOL    HW2 8307   1.585   5.209   4.076
 2077SOL     MW 8308   1.591   5.129   4.042
 2078SOL     OW 8309   0.756   7.436   4.025
 2078SOL    HW1 8310   0.684   7.498   4.015
 2078SOL    HW2 8311   0.810   7.472   4.096
 2078SOL     MW 8312   0.754   7.448   4.033
 2079SOL     OW 8313   0.635   3.579   1.734
 2079SOL    HW1 8314   0.589   3.497   1.713
 2079SOL    HW2 8315   0.590   3.613   1.811
 2079SOL     MW 8316   0.623   3.573   1.741
 2080SOL     OW 8317   7.926   3.370   7.537
 2080SOL    HW1 8318   7.950   3.326   7.618
 2080SOL    HW2 8319   7.893   3.300   7.480
 2080SOL     MW 8320   7.925   3.356   7.540
 2081SOL     OW 8321   7.376   1.792   5.209
 2081SOL    HW1 8322   7.329   1.801   5.292
 2081SOL    HW2 8323   7.464   1.764   5.234
 2081SOL     MW 8324   7.381   1.790   5.223
 2082SOL     OW 8325  10.038   0.200   0.729
 2082SOL    HW1 8326  10.090   0.140   0.675
 2082SOL    HW2 8327  10.090   0.280   0.732
 2082SOL     MW 8328  10.051   0.203   0.723
 2083SOL     OW 8329   2.223   1.701   1.073
 2083SOL    HW1 8330   2.194   1.636   1.008
 2083SOL    HW2 8331   2.144   1.748   1.097
 2083SOL     MW 8332   2.209   1.698   1.067
 2084SOL     OW 8333   9.091   6.428   6.303
 2084SOL    HW1 8334   9.039   6.351   6.325
 2084SOL    HW2 8335   9.132   6.455   6.385
 2084SOL     MW 8336   9.090   6.422   6.316
 2085SOL     OW 8337   2.080   9.765   2.591
 2085SOL    HW1 8338   1.988   9.781   2.569
 2085SOL    HW2 8339   2.129   9.794   2.514
 2085SOL     MW 8340   2.075   9.771   2.579
 2086SOL     OW 8341  10.142   7.770   8.175
 2086SOL    HW1 8342  10.050   7.795   8.189
 2086SOL    HW2 8343  10.155   7.694   8.230
 2086SOL     MW 8344  10.132   7.764   8.184
 2087SOL     OW 8345   0.461   8.579   4.812
 2087SOL    HW1 8346   0.398   8.553   4.880
 2087SOL    HW2 8347   0.531   8.513   4.818
 2087SOL     MW 8348   0.462   8.567   4.822
 2088SOL     OW 8349   1.433   2.841   2.213
 2088SOL    HW1 8350   1.434   2.930   2.178
 2088SOL    HW2 8351   1.344   2.810   2.197
 2088SOL     MW 8352   1.422   2.849   2.206
 2089SOL     OW 8353   0.080   0.763   4.419
 2089SOL    HW1 8354   0.015   0.806   4.474
 2089SOL    HW2 8355   0.033   0.689   4.381
 2089SOL     MW 8356   0.066   0.759   4.421
 2090SOL     OW 8357   8.900   2.866   8.549
 2090SOL    HW1 8358   8.860   2.781   8.568
 2090SOL    HW2 8359   8.886   2.917   8.628
 2090SOL     MW 8360   8.893   2.861   8.561
 2091SOL     OW 8361   3.059   8.086   0.497
 2091SOL    HW1 8362   3.039   8.173   0.463
 2091SOL    HW2 8363   2.988   8.066   0.558
 2091SOL     MW 8364   3.048   8.094   0.501
 2092SOL     OW 8365   2.972   6.190   5.097
 2092SOL    HW1 8366   3.013   6.183   5.011
 2092SOL    HW2 8367   2.909   6.118   5.100
 2092SOL     MW 8368   2.969   6.180   5.086
 2093SOL     OW 8369   9.027   1.909   6.534
 2093SOL    HW1 8370   8.993   1.993   6.506
 2093SOL    HW2 8371   8.976   1.844   6.487
 2093SOL     MW 8372   9.016   1.911   6.525
 2094SOL     OW 8373   3.999   2.497   0.481
 2094SOL    HW1 8374   3.930   2.550   0.440
 2094SOL    HW2 8375   4.066   2.488   0.414
 2094SOL     MW 8376   3.999   2.503   0.467
 2095SOL     OW 8377   5.492   1.175   3.836
 2095SOL    HW1 8378   5.499   1.089   3.795
 2095SOL    HW2 8379   5.583   1.201   3.853
 2095SOL     MW 8380   5.505   1.167   3.833
 2096SOL     OW 8381   4.777   4.711   1.936
 2096SOL    HW1 8382   4.764   4.751   2.022
 2096SOL    HW2 8383   4.868   4.734   1.913
 2096SOL     MW 8384   4.787   4.719   1.944
 2097SOL     OW 8385   5.868   3.050   0.975
 2097SOL    HW1 8386   5.899   3.131   1.016
 2097SOL    HW2 8387   5.838   2.997   1.049
 2097SOL     MW 8388   5.868   3.054   0.990
 2098SOL     OW 8389   4.146   8.392   3.423
 2098SOL    HW1 8390   4.179   8.386   3.513
 2098SOL    HW2 8391   4.057   8.359   3.427
 2098SOL     MW 8392   4.139   8.387   3.435
 2099SOL     OW 8393   3.723   1.055   6.766
 2099SOL    HW1 8394   3.658   0.988   6.745
 2099SOL    HW2 8395   3.806   1.007   6.768
 2099SOL     MW 8396   3.725   1.040   6.763
 2100SOL     OW 8397   0.347   9.465   3.609
 2100SOL    HW1 8398   0.362   9.372   3.626
 2100SOL    HW2 8399   0.367   9.476   3.517
 2100SOL     MW 8400   0.351   9.454   3.600
 2101SOL     OW 8401   5.840   4.718   8.757
 2101SOL    HW1 8402   5.889   4.657   8.702
 2101SOL    HW2 8403   5.896   4.796   8.762
 2101SOL     MW 8404   5.854   4.721   8.751
 2102SOL     OW 8405   1.068   9.663   6.815
 2102SOL    HW1 8406   1.157   9.690   6.790
 2102SOL    HW2 8407   1.015   9.683   6.738
 2102SOL     MW 8408   1.073   9.669   6.802
 2103SOL     OW 8409   8.482   2.755   2.609
 2103SOL    HW1 8410   8.573   2.727   2.620
 2103SOL    HW2 8411   8.445   2.752   2.697
 2103SOL     MW 8412   8.489   2.751   2.622
 2104SOL     OW 8413   2.946   0.012   1.086
 2104SOL    HW1 8414   2.955  -0.023   0.997
 2104SOL    HW2 8415   2.936   0.106   1.073
 2104SOL     MW 8416   2.946   0.020   1.073
 2105SOL     OW 8417   5.948   4.017   1.389
 2105SOL    HW1 8418   6.039   3.991   1.372
 2105SOL    HW2 8419   5.901   3.934   1.395
 2105SOL     MW 8420   5.954   4.003   1.388
 2106SOL     OW 8421   3.128   6.531   3.007
 2106SOL    HW1 8422   3.082   6.525   3.091
 2106SOL    HW2 8423   3.216   6.500   3.024
 2106SOL     MW 8424   3.133   6.526   3.020
 2107SOL     OW 8425   1.392   2.019   0.051
 2107SOL    HW1 8426   1.420   1.993   0.139
 2107SOL    HW2 8427   1.450   2.091   0.027
 2107SOL     MW 8428   1.403   2.025   0.059
 2108SOL     OW 8429   5.965   4.949   7.437
 2108SOL    HW1 8430   6.012   4.880   7.390
 2108SOL    HW2 8431   5.992   4.938   7.529
 2108SOL     MW 8432   5.975   4.939   7.443
 2109SOL     OW 8433   0.490   2.651   7.442
 2109SOL    HW1 8434   0.487   2.687   7.353
 2109SOL    HW2 8435   0.583   2.637   7.459
 2109SOL     MW 8436   0.502   2.654   7.433
 2110SOL     OW 8437   0.105   7.634   7.427
 2110SOL    HW1 8438   0.170   7.697   7.396
 2110SOL    HW2 8439   0.157   7.566   7.470
 2110SOL     MW 8440   0.120   7.633   7.429
 2111SOL     OW 8441   1.718   1.235   5.999
 2111SOL    HW1 8442   1.806   1.252   5.966
 2111SOL    HW2 8443   1.708   1.296   6.072
 2111SOL     MW 8444   1.728   1.245   6.004
 2112SOL     OW 8445   8.500   5.332   5.972
 2112SOL    HW1 8446   8.503   5.255   6.028
 2112SOL    HW2 8447   8.481   5.298   5.885
 2112SOL     MW 8448   8.498   5.318   5.968
 2113SOL     OW 8449   5.783   8.578   5.378
 2113SOL    HW1 8450   5.737   8.620   5.306
 2113SOL    HW2 8451   5.790   8.646   5.446
 2113SOL     MW 8452   5.778   8.592   5.378
 2114SOL     OW 8453   7.201   0.574   0.894
 2114SOL    HW1 8454   7.295   0.569   0.878
 2114SOL    HW2 8455   7.171   0.647   0.840
 2114SOL     MW 8456   7.209   0.582   0.885
 2115SOL     OW 8457   3.579   8.759   6.370
 2115SOL    HW1 8458   3.547   8.849   6.363
 2115SOL    HW2 8459   3.500   8.705   6.367
 2115SOL     MW 8460   3.565   8.764   6.369
 2116SOL     OW 8461   3.418   1.210   2.346
 2116SOL    HW1 8462   3.459   1.189   2.262
 2116SOL    HW2 8463   3.387   1.126   2.380
 2116SOL     MW 8464   3.419   1.197   2.339
 2117SOL     OW 8465   6.771  10.114   8.521
 2117SOL    HW1 8466   6.710  10.159   8.579
 2117SOL    HW2 8467   6.736  10.025   8.514
 2117SOL     MW 8468   6.759  10.108   8.528
 2118SOL     OW 8469   1.343   9.110   4.164
 2118SOL    HW1 8470   1.252   9.137   4.150
 2118SOL    HW2 8471   1.381   9.107   4.077
 2118SOL     MW 8472   1.336   9.113   4.151
 2119SOL     OW 8473   4.907   7.903  10.036
 2119SOL    HW1 8474   4.902   7.998  10.026
 2119SOL    HW2 8475   4.869   7.886  10.122
 2119SOL     MW 8476   4.901   7.913  10.046
 2120SOL     OW 8477   2.669   9.837   3.819
 2120SOL    HW1 8478   2.578   9.838   3.848
 2120SOL    HW2 8479   2.665   9.809   3.728
 2120SOL     MW 8480   2.657   9.834   3.811
 2121SOL     OW 8481   3.368   1.327   1.685
 2121SOL    HW1 8482   3.397   1.292   1.769
 2121SOL    HW2 8483   3.342   1.249   1.635
 2121SOL     MW 8484   3.368   1.312   1.689
 2122SOL     OW 8485   8.209   2.171   7.078
 2122SOL    HW1 8486   8.221   2.084   7.040
 2122SOL    HW2 8487   8.140   2.160   7.143
 2122SOL     MW 8488   8.202   2.158   7.082
 2123SOL     OW 8489   3.855   7.745   8.843
 2123SOL    HW1 8490   3.818   7.702   8.766
 2123SOL    HW2 8491   3.927   7.688   8.870
 2123SOL     MW 8492   3.860   7.732   8.837
 2124SOL     OW 8493   3.782   7.533   2.897
 2124SOL    HW1 8494   3.866   7.489   2.906
 2124SOL    HW2 8495   3.800   7.609   2.842
 2124SOL     MW 8496   3.795   7.537   2.891
 2125SOL     OW 8497   6.564   5.484   9.772
 2125SOL    HW1 8498   6.621   5.471   9.847
 2125SOL    HW2 8499   6.492   5.537   9.805
 2125SOL     MW 8500   6.562   5.489   9.786
 2126SOL     OW 8501   9.900   5.298   9.556
 2126SOL    HW1 8502   9.877   5.221   9.504
 2126SOL    HW2 8503   9.827   5.309   9.617
 2126SOL     MW 8504   9.888   5.289   9.557
 2127SOL     OW 8505   6.942   5.203   3.398
 2127SOL    HW1 8506   6.882   5.221   3.327
 2127SOL    HW2 8507   6.886   5.189   3.475
 2127SOL     MW 8508   6.927   5.203   3.399
 2128SOL     OW 8509   4.239   6.003   1.336
 2128SOL    HW1 8510   4.201   6.054   1.266
 2128SOL    HW2 8511   4.182   5.926   1.344
 2128SOL     MW 8512   4.227   5.999   1.328
 2129SOL     OW 8513   1.066   7.328   0.852
 2129SOL    HW1 8514   1.138   7.349   0.912
 2129SOL    HW2 8515   1.106   7.274   0.784
 2129SOL     MW 8516   1.081   7.324   0.851
 2130SOL     OW 8517   6.267   0.377   2.108
 2130SOL    HW1 8518   6.286   0.285   2.087
 2130SOL    HW2 8519   6.353   0.420   2.109
 2130SOL     MW 8520   6.280   0.371   2.105
 2131SOL     OW 8521   6.331   1.672  10.120
 2131SOL    HW1 8522   6.405   1.660  10.060
 2131SOL    HW2 8523   6.331   1.594  10.175
 2131SOL     MW 8524   6.340   1.660  10.119
 2132SOL     OW 8525   5.597   4.073   2.294
 2132SOL    HW1 8526   5.641   4.094   2.376
 2132SOL    HW2 8527   5.507   4.053   2.320
 2132SOL     MW 8528   5.591   4.073   2.308
 2133SOL     OW 8529   3.126   5.865   8.753
 2133SOL    HW1 8530   3.070   5.895   8.825
 2133SOL    HW2 8531   3.175   5.791   8.790
 2133SOL     MW 8532   3.125   5.859   8.767
 2134SOL     OW 8533   1.184   0.004   6.851
 2134SOL    HW1 8534   1.101   0.028   6.812
 2134SOL    HW2 8535   1.175   0.030   6.943
 2134SOL     MW 8536   1.172   0.010   6.858
 2135SOL     OW 8537   2.387   4.528   8.008
 2135SOL    HW1 8538   2.469   4.478   8.006
 2135SOL    HW2 8539   2.408   4.609   7.961
 2135SOL     MW 8540   2.400   4.532   8.002
 2136SOL     OW 8541   6.553   0.204   1.183
 2136SOL    HW1 8542   6.614   0.258   1.132
 2136SOL    HW2 8543   6.478   0.262   1.199
 2136SOL     MW 8544   6.551   0.219   1.179
 2137SOL     OW 8545   0.088   1.473   9.622
 2137SOL    HW1 8546   0.149   1.541   9.594
 2137SOL    HW2 8547   0.002   1.506   9.596
 2137SOL     MW 8548   0.085   1.486   9.615
 2138SOL     OW 8549   2.949   9.454   2.306
 2138SOL    HW1 8550   2.979   9.364   2.322
 2138SOL    HW2 8551   2.939   9.459   2.211
 2138SOL     MW 8552   2.951   9.443   2.296
 2139SOL     OW 8553   2.038   6.569   1.287
 2139SOL    HW1 8554   2.130   6.578   1.312
 2139SOL    HW2 8555   2.012   6.483   1.320
 2139SOL     MW 8556   2.047   6.560   1.294
 2140SOL     OW 8557   9.651   7.933   1.846
 2140SOL    HW1 8558   9.688   7.983   1.773
 2140SOL    HW2 8559   9.701   7.852   1.846
 2140SOL     MW 8560   9.662   7.929   1.836
 2141SOL     OW 8561   7.103   9.705   0.711
 2141SOL    HW1 8562   7.103   9.776   0.647
 2141SOL    HW2 8563   7.053   9.635   0.670
 2141SOL     MW 8564   7.097   9.705   0.698
 2142SOL     OW 8565   0.620   7.160   8.135
 2142SOL    HW1 8566   0.552   7.227   8.136
 2142SOL    HW2 8567   0.611   7.115   8.219
 2142SOL     MW 8568   0.610   7.163   8.146
 2143SOL     OW 8569   7.738   9.838  10.125
 2143SOL    HW1 8570   7.698   9.920  10.154
 2143SOL    HW2 8571   7.828   9.862  10.103
 2143SOL     MW 8572   7.745   9.851  10.126
 2144SOL     OW 8573   3.731   9.364   5.316
 2144SOL    HW1 8574   3.705   9.454   5.334
 2144SOL    HW2 8575   3.811   9.352   5.367
 2144SOL     MW 8576   3.738   9.374   5.325
 2145SOL     OW 8577   5.813   3.346   9.295
 2145SOL    HW1 8578   5.847   3.341   9.206
 2145SOL    HW2 8579   5.800   3.440   9.310
 2145SOL     MW 8580   5.816   3.357   9.286
 2146SOL     OW 8581   6.020   6.283   3.432
 2146SOL    HW1 8582   5.936   6.326   3.415
 2146SOL    HW2 8583   6.085   6.345   3.399
 2146SOL     MW 8584   6.017   6.297   3.426
 2147SOL     OW 8585   3.514   2.131   6.274
 2147SOL    HW1 8586   3.511   2.190   6.198
 2147SOL    HW2 8587   3.527   2.189   6.349
 2147SOL     MW 8588   3.515   2.146   6.274
 2148SOL     OW 8589   4.131   7.837   1.197
 2148SOL    HW1 8590   4.161   7.920   1.234
 2148SOL    HW2 8591   4.046   7.857   1.158
 2148SOL     MW 8592   4.124   7.850   1.197
 2149SOL     OW 8593  10.100   4.659   0.233
 2149SOL    HW1 8594  10.112   4.628   0.322
 2149SOL    HW2 8595  10.156   4.602   0.180
 2149SOL     MW 8596  10.108   4.647   0.237
 2150SOL     OW 8597   9.524   9.471   6.437
 2150SOL    HW1 8598   9.499   9.384   6.407
 2150SOL    HW2 8599   9.619   9.476   6.421
 2150SOL     MW 8600   9.533   9.460   6.431
 2151SOL     OW 8601   7.060   3.007   7.134
 2151SOL    HW1 8602   6.984   3.042   7.180
 2151SOL    HW2 8603   7.100   2.946   7.196
 2151SOL     MW 8604   7.056   3.003   7.148
 2152SOL     OW 8605   7.803  10.073   8.190
 2152SOL    HW1 8606   7.819   9.980   8.177
 2152SOL    HW2 8607   7.708  10.081   8.198
 2152SOL     MW 8608   7.793  10.062   8.189
 2153SOL     OW 8609   0.578   0.888  10.143
 2153SOL    HW1 8610   0.630   0.855  10.070
 2153SOL    HW2 8611   0.643   0.923  10.205
 2153SOL     MW 8612   0.593   0.888  10.142
 2154SOL     OW 8613   6.701   9.268   4.584
 2154SOL    HW1 8614   6.727   9.345   4.535
 2154SOL    HW2 8615   6.609   9.282   4.605
 2154SOL     MW 8616   6.692   9.279   4.580
 2155SOL     OW 8617   2.749   3.373   4.770
 2155SOL    HW1 8618   2.725   3.436   4.838
 2155SOL    HW2 8619   2.770   3.293   4.819
 2155SOL     MW 8620   2.748   3.370   4.785
 2156SOL     OW 8621   6.926   0.237   6.775
 2156SOL    HW1 8622   6.915   0.253   6.681
 2156SOL    HW2 8623   6.887   0.314   6.817
 2156SOL     MW 8624   6.919   0.249   6.768
 2157SOL     OW 8625   9.327   0.295   1.641
 2157SOL    HW1 8626   9.366   0.217   1.600
 2157SOL    HW2 8627   9.260   0.260   1.699
 2157SOL     MW 8628   9.324   0.280   1.643
 2158SOL     OW 8629   6.620   6.392   4.984
 2158SOL    HW1 8630   6.606   6.368   5.076
 2158SOL    HW2 8631   6.695   6.339   4.957
 2158SOL     MW 8632   6.628   6.382   4.992
 2159SOL     OW 8633   3.924   1.916   2.465
 2159SOL    HW1 8634   3.898   2.008   2.475
 2159SOL    HW2 8635   3.891   1.873   2.544
 2159SOL     MW 8636   3.917   1.922   2.476
 2160SOL     OW 8637   0.271   4.817   7.268
 2160SOL    HW1 8638   0.311   4.832   7.182
 2160SOL    HW2 8639   0.177   4.822   7.251
 2160SOL     MW 8640   0.264   4.820   7.255
 2161SOL     OW 8641   8.135   3.611   0.976
 2161SOL    HW1 8642   8.163   3.702   0.967
 2161SOL    HW2 8643   8.040   3.616   0.982
 2161SOL     MW 8644   8.126   3.624   0.976
 2162SOL     OW 8645   8.635   5.712   4.636
 2162SOL    HW1 8646   8.616   5.638   4.579
 2162SOL    HW2 8647   8.727   5.732   4.620
 2162SOL     MW 8648   8.645   5.705   4.627
 2163SOL     OW 8649   5.115   4.977   0.069
 2163SOL    HW1 8650   5.127   5.054   0.125
 2163SOL    HW2 8651   5.078   5.012  -0.012
 2163SOL     MW 8652   5.112   4.992   0.066
 2164SOL     OW 8653   7.040   6.378   9.997
 2164SOL    HW1 8654   6.985   6.331  10.060
 2164SOL    HW2 8655   7.007   6.467   9.998
 2164SOL     MW 8656   7.029   6.383  10.005
 2165SOL     OW 8657   0.053  10.041   2.358
 2165SOL    HW1 8658   0.148  10.041   2.348
 2165SOL    HW2 8659   0.027   9.951   2.343
 2165SOL     MW 8660   0.062  10.030   2.355
 2166SOL     OW 8661   1.091   1.950   0.634
 2166SOL    HW1 8662   1.067   1.896   0.558
 2166SOL    HW2 8663   1.178   1.918   0.659
 2166SOL     MW 8664   1.099   1.939   0.627
 2167SOL     OW 8665   2.545   8.721   9.000
 2167SOL    HW1 8666   2.513   8.674   8.922
 2167SOL    HW2 8667   2.621   8.671   9.028
 2167SOL     MW 8668   2.550   8.708   8.993
 2168SOL     OW 8669   3.210   5.889   6.315
 2168SOL    HW1 8670   3.284   5.843   6.356
 2168SOL    HW2 8671   3.245   5.976   6.295
 2168SOL     MW 8672   3.224   5.894   6.318
 2169SOL     OW 8673   5.576   2.999   9.425
 2169SOL    HW1 8674   5.661   3.042   9.433
 2169SOL    HW2 8675   5.517   3.069   9.395
 2169SOL     MW 8676   5.579   3.014   9.422
 2170SOL     OW 8677   6.589   9.277   9.582
 2170SOL    HW1 8678   6.648   9.206   9.558
 2170SOL    HW2 8679   6.641   9.357   9.570
 2170SOL     MW 8680   6.603   9.278   9.577
 2171SOL     OW 8681   6.342  10.052   7.755
 2171SOL    HW1 8682   6.398  10.036   7.831
 2171SOL    HW2 8683   6.301   9.967   7.737
 2171SOL     MW 8684   6.344  10.039   7.763
 2172SOL     OW 8685   1.867   5.143   4.982
 2172SOL    HW1 8686   1.807   5.211   5.013
 2172SOL    HW2 8687   1.821   5.102   4.908
 2172SOL     MW 8688   1.853   5.146   4.976
 2173SOL     OW 8689   8.860   7.968   0.744
 2173SOL    HW1 8690   8.896   8.050   0.778
 2173SOL    HW2 8691   8.924   7.901   0.769
 2173SOL     MW 8692   8.873   7.970   0.752
 2174SOL     OW 8693   9.153   5.090   3.170
 2174SOL    HW1 8694   9.125   5.003   3.142
 2174SOL    HW2 8695   9.169   5.080   3.264
 2174SOL     MW 8696   9.151   5.077   3.179
 2175SOL     OW 8697   3.888   8.988   5.214
 2175SOL    HW1 8698   3.901   8.958   5.124
 2175SOL    HW2 8699   3.801   9.029   5.213
 2175SOL     MW 8700   3.878   8.989   5.203
 2176SOL     OW 8701   3.619   5.849   8.012
 2176SOL    HW1 8702   3.583   5.788   7.947
 2176SOL    HW2 8703   3.561   5.840   8.088
 2176SOL     MW 8704   3.607   5.840   8.014
 2177SOL     OW 8705   8.187   1.152   7.621
 2177SOL    HW1 8706   8.274   1.185   7.644
 2177SOL    HW2 8707   8.198   1.112   7.535
 2177SOL     MW 8708   8.200   1.151   7.613
 2178SOL     OW 8709   8.984   9.911   7.631
 2178SOL    HW1 8710   8.963   9.821   7.658
 2178SOL    HW2 8711   8.922   9.931   7.562
 2178SOL     MW 8712   8.974   9.902   7.626
 2179SOL     OW 8713   9.029   8.192   9.542
 2179SOL    HW1 8714   9.109   8.244   9.548
 2179SOL    HW2 8715   9.058   8.106   9.510
 2179SOL     MW 8716   9.043   8.187   9.538
 2180SOL     OW 8717   2.127   2.707   1.650
 2180SOL    HW1 8718   2.092   2.766   1.583
 2180SOL    HW2 8719   2.200   2.662   1.607
 2180SOL     MW 8720   2.132   2.709   1.636
 2181SOL     OW 8721   0.021   4.495   3.071
 2181SOL    HW1 8722   0.026   4.409   3.027
 2181SOL    HW2 8723   0.111   4.529   3.064
 2181SOL     MW 8724   0.033   4.488   3.064
 2182SOL     OW 8725   0.689   1.631   3.167
 2182SOL    HW1 8726   0.653   1.700   3.223
 2182SOL    HW2 8727   0.613   1.594   3.122
 2182SOL     MW 8728   0.674   1.635   3.169
 2183SOL     OW 8729   4.652   5.537   1.129
 2183SOL    HW1 8730   4.724   5.597   1.110
 2183SOL    HW2 8731   4.605   5.579   1.202
 2183SOL     MW 8732   4.655   5.550   1.136
 2184SOL     OW 8733   8.802   2.049   3.709
 2184SOL    HW1 8734   8.862   2.048   3.784
 2184SOL    HW2 8735   8.858   2.069   3.634
 2184SOL     MW 8736   8.817   2.051   3.709
 2185SOL     OW 8737   3.890   3.616   7.444
 2185SOL    HW1 8738   3.918   3.701   7.412
 2185SOL    HW2 8739   3.963   3.557   7.423
 2185SOL     MW 8740   3.903   3.619   7.437
 2186SOL     OW 8741   6.226   3.611   2.728
 2186SOL    HW1 8742   6.251   3.695   2.692
 2186SOL    HW2 8743   6.303   3.556   2.719
 2186SOL     MW 8744   6.239   3.615   2.722
 2187SOL     OW 8745   0.188   1.474   2.320
 2187SOL    HW1 8746   0.099   1.457   2.290
 2187SOL    HW2 8747   0.196   1.570   2.316
 2187SOL     MW 8748   0.178   1.484   2.316
 2188SOL     OW 8749   0.586   3.401   9.759
 2188SOL    HW1 8750   0.552   3.412   9.670
 2188SOL    HW2 8751   0.567   3.484   9.802
 2188SOL     MW 8752   0.580   3.413   9.753
 2189SOL     OW 8753   5.457   3.592   1.682
 2189SOL    HW1 8754   5.484   3.582   1.773
 2189SOL    HW2 8755   5.419   3.507   1.658
 2189SOL     MW 8756   5.456   3.580   1.690
 2190SOL     OW 8757   3.403   2.385   1.833
 2190SOL    HW1 8758   3.321   2.345   1.804
 2190SOL    HW2 8759   3.439   2.322   1.896
 2190SOL     MW 8760   3.398   2.372   1.837
 2191SOL     OW 8761   6.997   7.516   9.641
 2191SOL    HW1 8762   7.036   7.438   9.679
 2191SOL    HW2 8763   7.032   7.520   9.552
 2191SOL     MW 8764   7.006   7.506   9.635
 2192SOL     OW 8765   4.293   4.790   1.208
 2192SOL    HW1 8766   4.356   4.842   1.158
 2192SOL    HW2 8767   4.314   4.699   1.186
 2192SOL     MW 8768   4.304   4.785   1.199
 2193SOL     OW 8769   9.804   0.725   6.949
 2193SOL    HW1 8770   9.857   0.685   6.880
 2193SOL    HW2 8771   9.833   0.681   7.029
 2193SOL     MW 8772   9.815   0.714   6.950
 2194SOL     OW 8773   1.236   3.369   7.128
 2194SOL    HW1 8774   1.142   3.360   7.113
 2194SOL    HW2 8775   1.266   3.279   7.143
 2194SOL     MW 8776   1.228   3.356   7.128
 2195SOL     OW 8777   2.809   8.882   1.885
 2195SOL    HW1 8778   2.837   8.830   1.961
 2195SOL    HW2 8779   2.780   8.965   1.922
 2195SOL     MW 8780   2.809   8.886   1.899
 2196SOL     OW 8781   4.857   5.918   6.602
 2196SOL    HW1 8782   4.890   5.846   6.549
 2196SOL    HW2 8783   4.928   5.938   6.662
 2196SOL     MW 8784   4.870   5.912   6.603
 2197SOL     OW 8785   1.772   3.384   7.974
 2197SOL    HW1 8786   1.853   3.374   8.025
 2197SOL    HW2 8787   1.797   3.360   7.885
 2197SOL     MW 8788   1.785   3.380   7.969
 2198SOL     OW 8789   0.333   0.859   4.371
 2198SOL    HW1 8790   0.247   0.823   4.394
 2198SOL    HW2 8791   0.333   0.864   4.275
 2198SOL     MW 8792   0.322   0.855   4.362
 2199SOL     OW 8793   0.353   9.499   8.416
 2199SOL    HW1 8794   0.442   9.499   8.452
 2199SOL    HW2 8795   0.297   9.481   8.491
 2199SOL     MW 8796   0.357   9.497   8.430
 2200SOL     OW 8797   0.419   0.938   1.813
 2200SOL    HW1 8798   0.372   0.928   1.896
 2200SOL    HW2 8799   0.505   0.899   1.830
 2200SOL     MW 8800   0.424   0.932   1.826
 2201SOL     OW 8801   7.223   6.467   8.159
 2201SOL    HW1 8802   7.293   6.407   8.131
 2201SOL    HW2 8803   7.162   6.412   8.208
 2201SOL     MW 8804   7.224   6.452   8.161
 2202SOL     OW 8805   8.941   6.800   0.001
 2202SOL    HW1 8806   8.886   6.816   0.077
 2202SOL    HW2 8807   8.914   6.865  -0.064
 2202SOL     MW 8808   8.931   6.810   0.002
 2203SOL     OW 8809   5.739   9.335   6.070
 2203SOL    HW1 8810   5.669   9.361   6.011
 2203SOL    HW2 8811   5.723   9.386   6.150
 2203SOL     MW 8812   5.728   9.345   6.073
 2204SOL     OW 8813   4.567   5.172   2.999
 2204SOL    HW1 8814   4.641   5.213   2.954
 2204SOL    HW2 8815   4.604   5.092   3.038
 2204SOL     MW 8816   4.582   5.167   2.998
 2205SOL     OW 8817   7.516   9.346   6.710
 2205SOL    HW1 8818   7.523   9.272   6.649
 2205SOL    HW2 8819   7.602   9.387   6.708
 2205SOL     MW 8820   7.528   9.342   6.702
 2206SOL     OW 8821   8.520   9.295   8.666
 2206SOL    HW1 8822   8.494   9.313   8.756
 2206SOL    HW2 8823   8.477   9.212   8.645
 2206SOL     MW 8824   8.511   9.286   8.675
 2207SOL     OW 8825   7.839   4.041   5.033
 2207SOL    HW1 8826   7.777   4.114   5.037
 2207SOL    HW2 8827   7.820   3.998   4.949
 2207SOL     MW 8828   7.829   4.045   5.023
 2208SOL     OW 8829   0.350   3.909   5.030
 2208SOL    HW1 8830   0.396   3.991   5.015
 2208SOL    HW2 8831   0.309   3.920   5.116
 2208SOL     MW 8832   0.351   3.921   5.039
 2209SOL     OW 8833   8.305   4.306   4.718
 2209SOL    HW1 8834   8.285   4.289   4.811
 2209SOL    HW2 8835   8.390   4.349   4.720
 2209SOL     MW 8836   8.313   4.309   4.730
 2210SOL     OW 8837   9.758   2.794   1.513
 2210SOL    HW1 8838   9.782   2.811   1.604
 2210SOL    HW2 8839   9.840   2.772   1.470
 2210SOL     MW 8840   9.771   2.793   1.519
 2211SOL     OW 8841   6.507   6.334   8.945
 2211SOL    HW1 8842   6.444   6.342   8.874
 2211SOL    HW2 8843   6.454   6.310   9.022
 2211SOL     MW 8844   6.492   6.332   8.946
 2212SOL     OW 8845   7.062   4.072   4.389
 2212SOL    HW1 8846   7.147   4.034   4.413
 2212SOL    HW2 8847   7.035   4.120   4.467
 2212SOL     MW 8848   7.070   4.073   4.402
 2213SOL     OW 8849   7.618   4.857   6.335
 2213SOL    HW1 8850   7.707   4.892   6.325
 2213SOL    HW2 8851   7.620   4.813   6.420
 2213SOL     MW 8852   7.630   4.856   6.345
 2214SOL     OW 8853   5.521   9.939   2.705
 2214SOL    HW1 8854   5.431   9.966   2.687
 2214SOL    HW2 8855   5.563   9.936   2.618
 2214SOL     MW 8856   5.515   9.942   2.691
 2215SOL     OW 8857   8.643   8.526   9.937
 2215SOL    HW1 8858   8.601   8.579   9.869
 2215SOL    HW2 8859   8.688   8.456   9.889
 2215SOL     MW 8860   8.643   8.524   9.922
 2216SOL     OW 8861   2.981   9.537   7.301
 2216SOL    HW1 8862   3.062   9.534   7.353
 2216SOL    HW2 8863   2.916   9.576   7.360
 2216SOL     MW 8864   2.983   9.542   7.315
 2217SOL     OW 8865   4.889   0.892   7.329
 2217SOL    HW1 8866   4.907   0.981   7.361
 2217SOL    HW2 8867   4.794   0.888   7.323
 2217SOL     MW 8868   4.879   0.903   7.332
 2218SOL     OW 8869   3.901   0.596   2.928
 2218SOL    HW1 8870   3.890   0.559   3.016
 2218SOL    HW2 8871   3.827   0.560   2.878
 2218SOL     MW 8872   3.890   0.587   2.933
 2219SOL     OW 8873   2.990   4.313   9.013
 2219SOL    HW1 8874   3.086   4.319   9.014
 2219SOL    HW2 8875   2.972   4.219   9.018
 2219SOL     MW 8876   3.000   4.302   9.014
 2220SOL     OW 8877   9.289   6.971   4.319
 2220SOL    HW1 8878   9.317   7.047   4.369
 2220SOL    HW2 8879   9.216   7.002   4.266
 2220SOL     MW 8880   9.283   6.985   4.319
 2221SOL     OW 8881   1.696   2.899   8.773
 2221SOL    HW1 8882   1.659   2.911   8.685
 2221SOL    HW2 8883   1.666   2.812   8.800
 2221SOL     MW 8884   1.688   2.889   8.765
 2222SOL     OW 8885   8.911   4.644   2.955
 2222SOL    HW1 8886   8.925   4.670   2.864
 2222SOL    HW2 8887   8.830   4.594   2.953
 2222SOL     MW 8888   8.902   4.641   2.943
 2223SOL     OW 8889   3.148   0.484   6.712
 2223SOL    HW1 8890   3.150   0.394   6.744
 2223SOL    HW2 8891   3.111   0.535   6.784
 2223SOL     MW 8892   3.143   0.479   6.725
 2224SOL     OW 8893   5.673   7.377   3.731
 2224SOL    HW1 8894   5.662   7.436   3.805
 2224SOL    HW2 8895   5.768   7.363   3.725
 2224SOL     MW 8896   5.684   7.382   3.739
 2225SOL     OW 8897   7.562   6.492   5.402
 2225SOL    HW1 8898   7.628   6.526   5.462
 2225SOL    HW2 8899   7.613   6.451   5.331
 2225SOL     MW 8900   7.577   6.491   5.400
 2226SOL     OW 8901   1.842   2.526  10.116
 2226SOL    HW1 8902   1.772   2.585  10.145
 2226SOL    HW2 8903   1.920   2.581  10.112
 2226SOL     MW 8904   1.843   2.540  10.119
 2227SOL     OW 8905   3.743   7.884   5.457
 2227SOL    HW1 8906   3.658   7.926   5.462
 2227SOL    HW2 8907   3.806   7.952   5.481
 2227SOL     MW 8908   3.740   7.898   5.460
 2228SOL     OW 8909   3.744   7.182   7.727
 2228SOL    HW1 8910   3.673   7.246   7.713
 2228SOL    HW2 8911   3.777   7.164   7.639
 2228SOL     MW 8912   3.739   7.188   7.714
 2229SOL     OW 8913   1.163   8.814   2.383
 2229SOL    HW1 8914   1.212   8.772   2.312
 2229SOL    HW2 8915   1.211   8.895   2.400
 2229SOL     MW 8916   1.176   8.819   2.376
 2230SOL     OW 8917   5.311   6.768   5.223
 2230SOL    HW1 8918   5.273   6.683   5.247
 2230SOL    HW2 8919   5.301   6.821   5.302
 2230SOL     MW 8920   5.305   6.764   5.236
 2231SOL     OW 8921   1.248   5.182   4.817
 2231SOL    HW1 8922   1.230   5.224   4.733
 2231SOL    HW2 8923   1.177   5.118   4.827
 2231SOL     MW 8924   1.236   5.179   4.808
 2232SOL     OW 8925   4.762   6.231   9.397
 2232SOL    HW1 8926   4.821   6.179   9.343
 2232SOL    HW2 8927   4.678   6.226   9.352
 2232SOL     MW 8928   4.759   6.223   9.384
 2233SOL     OW 8929   5.745   8.067   7.043
 2233SOL    HW1 8930   5.807   8.015   6.992
 2233SOL    HW2 8931   5.678   8.093   6.980
 2233SOL     MW 8932   5.745   8.064   7.028
 2234SOL     OW 8933   0.354   2.345   9.858
 2234SOL    HW1 8934   0.318   2.406   9.923
 2234SOL    HW2 8935   0.447   2.367   9.854
 2234SOL     MW 8936   0.361   2.356   9.866
 2235SOL     OW 8937   6.514   0.496   2.093
 2235SOL    HW1 8938   6.498   0.590   2.093
 2235SOL    HW2 8939   6.542   0.476   2.004
 2235SOL     MW 8940   6.516   0.505   2.082
 2236SOL     OW 8941   6.599   3.540   7.079
 2236SOL    HW1 8942   6.574   3.622   7.036
 2236SOL    HW2 8943   6.673   3.563   7.134
 2236SOL     MW 8944   6.605   3.553   7.081
 2237SOL     OW 8945   4.230   0.224   5.412
 2237SOL    HW1 8946   4.276   0.303   5.440
 2237SOL    HW2 8947   4.288   0.153   5.436
 2237SOL     MW 8948   4.243   0.225   5.419
 2238SOL     OW 8949   8.276   9.754   7.420
 2238SOL    HW1 8950   8.219   9.830   7.418
 2238SOL    HW2 8951   8.228   9.686   7.373
 2238SOL     MW 8952   8.263   9.755   7.414
 2239SOL     OW 8953   1.858   3.981   2.705
 2239SOL    HW1 8954   1.938   3.954   2.660
 2239SOL    HW2 8955   1.802   4.016   2.635
 2239SOL     MW 8956   1.861   3.982   2.690
 2240SOL     OW 8957   0.168   4.728   4.042
 2240SOL    HW1 8958   0.119   4.742   3.961
 2240SOL    HW2 8959   0.101   4.733   4.111
 2240SOL     MW 8960   0.153   4.731   4.041
 2241SOL     OW 8961   3.632   3.841   5.201
 2241SOL    HW1 8962   3.685   3.920   5.192
 2241SOL    HW2 8963   3.584   3.834   5.119
 2241SOL     MW 8964   3.632   3.850   5.190
 2242SOL     OW 8965   7.631   5.134   4.612
 2242SOL    HW1 8966   7.722   5.162   4.628
 2242SOL    HW2 8967   7.638   5.041   4.592
 2242SOL     MW 8968   7.644   5.126   4.611
 2243SOL     OW 8969   7.605   4.289   6.907
 2243SOL    HW1 8970   7.668   4.303   6.836
 2243SOL    HW2 8971   7.654   4.238   6.972
 2243SOL     MW 8972   7.619   4.284   6.906
 2244SOL     OW 8973   4.347   9.181   9.167
 2244SOL    HW1 8974   4.261   9.209   9.197
 2244SOL    HW2 8975   4.409   9.233   9.219
 2244SOL     MW 8976   4.344   9.191   9.177
 2245SOL     OW 8977   9.467   2.479   5.601
 2245SOL    HW1 8978   9.443   2.395   5.561
 2245SOL    HW2 8979   9.538   2.512   5.546
 2245SOL     MW 8980   9.473   2.473   5.589
 2246SOL     OW 8981   4.731   0.963   8.134
 2246SOL    HW1 8982   4.803   0.941   8.193
 2246SOL    HW2 8983   4.759   0.931   8.048
 2246SOL     MW 8984   4.744   0.956   8.131
 2247SOL     OW 8985   0.812   3.512   3.016
 2247SOL    HW1 8986   0.834   3.593   2.971
 2247SOL    HW2 8987   0.880   3.502   3.082
 2247SOL     MW 8988   0.823   3.521   3.019
 2248SOL     OW 8989   5.857   8.901   8.590
 2248SOL    HW1 8990   5.775   8.946   8.610
 2248SOL    HW2 8991   5.900   8.958   8.526
 2248SOL     MW 8992   5.852   8.914   8.584
 2249SOL     OW 8993   0.371   8.702   9.785
 2249SOL    HW1 8994   0.392   8.614   9.816
 2249SOL    HW2 8995   0.351   8.751   9.865
 2249SOL     MW 8996   0.371   8.697   9.800
 2250SOL     OW 8997   9.468   1.787   2.604
 2250SOL    HW1 8998   9.427   1.746   2.680
 2250SOL    HW2 8999   9.471   1.880   2.627
 2250SOL     MW 9000   9.463   1.794   2.617
 2251SOL     OW 9001   1.998   2.273   4.930
 2251SOL    HW1 9002   2.026   2.210   4.996
 2251SOL    HW2 9003   2.049   2.352   4.949
 2251SOL     MW 9004   2.008   2.275   4.941
 2252SOL     OW 9005   7.236   8.584   5.803
 2252SOL    HW1 9006   7.246   8.638   5.882
 2252SOL    HW2 9007   7.263   8.496   5.830
 2252SOL     MW 9008   7.240   8.580   5.817
 2253SOL     OW 9009   0.935   7.655   1.904
 2253SOL    HW1 9010   0.882   7.650   1.983
 2253SOL    HW2 9011   0.912   7.739   1.865
 2253SOL     MW 9012   0.925   7.665   1.909
 2254SOL     OW 9013   6.210   9.015   6.381
 2254SOL    HW1 9014   6.237   9.092   6.432
 2254SOL    HW2 9015   6.135   9.045   6.330
 2254SOL     MW 9016   6.204   9.029   6.381
 2255SOL     OW 9017   8.668   5.079   0.885
 2255SOL    HW1 9018   8.639   4.988   0.887
 2255SOL    HW2 9019   8.731   5.086   0.957
 2255SOL     MW 9020   8.672   5.068   0.894
 2256SOL     OW 9021   5.273   4.080   7.499
 2256SOL    HW1 9022   5.338   4.114   7.438
 2256SOL    HW2 9023   5.206   4.149   7.504
 2256SOL     MW 9024   5.273   4.093   7.492
 2257SOL     OW 9025   9.982   4.181   1.502
 2257SOL    HW1 9026   9.974   4.240   1.427
 2257SOL    HW2 9027   9.894   4.180   1.540
 2257SOL     MW 9028   9.969   4.189   1.497
 2258SOL     OW 9029   4.236   4.819   3.611
 2258SOL    HW1 9030   4.185   4.740   3.593
 2258SOL    HW2 9031   4.176   4.891   3.591
 2258SOL     MW 9032   4.222   4.818   3.606
 2259SOL     OW 9033   3.168   4.666   3.972
 2259SOL    HW1 9034   3.118   4.748   3.974
 2259SOL    HW2 9035   3.209   4.665   3.885
 2259SOL     MW 9036   3.167   4.676   3.961
 2260SOL     OW 9037   2.574   7.893   3.950
 2260SOL    HW1 9038   2.482   7.884   3.974
 2260SOL    HW2 9039   2.619   7.911   4.033
 2260SOL     MW 9040   2.568   7.894   3.964
 2261SOL     OW 9041   0.177   4.866   7.521
 2261SOL    HW1 9042   0.229   4.843   7.445
 2261SOL    HW2 9043   0.215   4.948   7.552
 2261SOL     MW 9044   0.188   4.874   7.515
 2262SOL     OW 9045   8.847   7.396   1.345
 2262SOL    HW1 9046   8.799   7.403   1.428
 2262SOL    HW2 9047   8.809   7.319   1.303
 2262SOL     MW 9048   8.836   7.387   1.351
 2263SOL     OW 9049   6.477   2.753   2.839
 2263SOL    HW1 9050   6.400   2.811   2.834
 2263SOL    HW2 9051   6.541   2.793   2.780
 2263SOL     MW 9052   6.475   2.766   2.831
 2264SOL     OW 9053   5.755   9.870   6.931
 2264SOL    HW1 9054   5.684   9.810   6.951
 2264SOL    HW2 9055   5.832   9.830   6.971
 2264SOL     MW 9056   5.756   9.857   6.938
 2265SOL     OW 9057   4.239   8.607   1.739
 2265SOL    HW1 9058   4.314   8.576   1.689
 2265SOL    HW2 9059   4.163   8.573   1.690
 2265SOL     MW 9060   4.239   8.599   1.726
 2266SOL     OW 9061   2.130   5.224   4.959
 2266SOL    HW1 9062   2.040   5.195   4.974
 2266SOL    HW2 9063   2.135   5.240   4.865
 2266SOL     MW 9064   2.119   5.222   4.949
 2267SOL     OW 9065   6.023   0.847   5.199
 2267SOL    HW1 9066   6.026   0.906   5.123
 2267SOL    HW2 9067   5.965   0.891   5.261
 2267SOL     MW 9068   6.016   0.860   5.197
 2268SOL     OW 9069   0.945   5.614   6.885
 2268SOL    HW1 9070   0.923   5.669   6.810
 2268SOL    HW2 9071   0.948   5.526   6.850
 2268SOL     MW 9072   0.943   5.610   6.871
 2269SOL     OW 9073   1.294   3.582   0.215
 2269SOL    HW1 9074   1.312   3.488   0.215
 2269SOL    HW2 9075   1.285   3.604   0.308
 2269SOL     MW 9076   1.296   3.573   0.227
 2270SOL     OW 9077   4.014   1.054   1.328
 2270SOL    HW1 9078   3.996   1.115   1.257
 2270SOL    HW2 9079   4.100   1.079   1.360
 2270SOL     MW 9080   4.023   1.065   1.323
 2271SOL     OW 9081   2.699   5.244   1.333
 2271SOL    HW1 9082   2.776   5.290   1.366
 2271SOL    HW2 9083   2.698   5.261   1.239
 2271SOL     MW 9084   2.709   5.252   1.326
 2272SOL     OW 9085   3.892   8.545   2.158
 2272SOL    HW1 9086   3.964   8.504   2.206
 2272SOL    HW2 9087   3.932   8.572   2.075
 2272SOL     MW 9088   3.907   8.543   2.153
 2273SOL     OW 9089   2.137   7.163   7.567
 2273SOL    HW1 9090   2.119   7.210   7.648
 2273SOL    HW2 9091   2.199   7.220   7.520
 2273SOL     MW 9092   2.143   7.176   7.571
 2274SOL     OW 9093   3.112   3.256   1.459
 2274SOL    HW1 9094   3.153   3.222   1.538
 2274SOL    HW2 9095   3.062   3.332   1.489
 2274SOL     MW 9096   3.111   3.261   1.473
 2275SOL     OW 9097   6.434   2.836   0.142
 2275SOL    HW1 9098   6.361   2.784   0.177
 2275SOL    HW2 9099   6.395   2.883   0.068
 2275SOL     MW 9100   6.419   2.835   0.137
 2276SOL     OW 9101   7.253   3.470   3.630
 2276SOL    HW1 9102   7.162   3.459   3.659
 2276SOL    HW2 9103   7.292   3.383   3.644
 2276SOL     MW 9104   7.246   3.457   3.636
 2277SOL     OW 9105   1.166   4.034   7.050
 2277SOL    HW1 9106   1.174   4.129   7.056
 2277SOL    HW2 9107   1.072   4.017   7.061
 2277SOL     MW 9108   1.155   4.044   7.052
 2278SOL     OW 9109   9.872   1.187   5.040
 2278SOL    HW1 9110   9.791   1.172   5.089
 2278SOL    HW2 9111   9.844   1.238   4.964
 2278SOL     MW 9112   9.858   1.191   5.037
 2279SOL     OW 9113   4.387   5.772   1.287
 2279SOL    HW1 9114   4.304   5.729   1.307
 2279SOL    HW2 9115   4.372   5.864   1.307
 2279SOL     MW 9116   4.374   5.778   1.292
 2280SOL     OW 9117   1.886   3.871   8.927
 2280SOL    HW1 9118   1.801   3.834   8.903
 2280SOL    HW2 9119   1.949   3.806   8.899
 2280SOL     MW 9120   1.883   3.858   8.920
 2281SOL     OW 9121   6.457   4.328   9.303
 2281SOL    HW1 9122   6.476   4.342   9.210
 2281SOL    HW2 9123   6.364   4.348   9.313
 2281SOL     MW 9124   6.448   4.332   9.292
 2282SOL     OW 9125   1.169   4.841   3.760
 2282SOL    HW1 9126   1.262   4.833   3.780
 2282SOL    HW2 9127   1.166   4.881   3.673
 2282SOL     MW 9128   1.180   4.845   3.751
 2283SOL     OW 9129   6.967   8.223   1.282
 2283SOL    HW1 9130   6.918   8.168   1.221
 2283SOL    HW2 9131   7.057   8.191   1.277
 2283SOL     MW 9132   6.972   8.212   1.273
 2284SOL     OW 9133   7.626   8.810   7.225
 2284SOL    HW1 9134   7.584   8.876   7.281
 2284SOL    HW2 9135   7.596   8.727   7.261
 2284SOL     MW 9136   7.617   8.808   7.237
 2285SOL     OW 9137   7.388   2.569   8.772
 2285SOL    HW1 9138   7.389   2.542   8.863
 2285SOL    HW2 9139   7.476   2.550   8.739
 2285SOL     MW 9140   7.399   2.563   8.779
 2286SOL     OW 9141   7.675   6.823   2.467
 2286SOL    HW1 9142   7.619   6.796   2.540
 2286SOL    HW2 9143   7.746   6.759   2.467
 2286SOL     MW 9144   7.677   6.812   2.477
 2287SOL     OW 9145   9.548   6.158   1.829
 2287SOL    HW1 9146   9.636   6.157   1.866
 2287SOL    HW2 9147   9.510   6.075   1.856
 2287SOL     MW 9148   9.555   6.148   1.837
 2288SOL     OW 9149   8.278   1.434   5.470
 2288SOL    HW1 9150   8.215   1.406   5.536
 2288SOL    HW2 9151   8.232   1.501   5.420
 2288SOL     MW 9152   8.264   1.439   5.472
 2289SOL     OW 9153   5.919   3.349   9.042
 2289SOL    HW1 9154   5.877   3.315   8.962
 2289SOL    HW2 9155   6.012   3.344   9.024
 2289SOL     MW 9156   5.925   3.344   9.029
 2290SOL     OW 9157   4.439   9.955   3.570
 2290SOL    HW1 9158   4.397  10.034   3.537
 2290SOL    HW2 9159   4.520   9.986   3.611
 2290SOL     MW 9160   4.444   9.969   3.571
 2291SOL     OW 9161   2.162   4.842   5.339
 2291SOL    HW1 9162   2.234   4.863   5.279
 2291SOL    HW2 9163   2.206   4.813   5.419
 2291SOL     MW 9164   2.177   4.841   5.341
 2292SOL     OW 9165   7.109   5.395   7.041
 2292SOL    HW1 9166   7.155   5.477   7.061
 2292SOL    HW2 9167   7.123   5.341   7.119
 2292SOL     MW 9168   7.117   5.398   7.054
 2293SOL     OW 9169   0.719   0.090   2.463
 2293SOL    HW1 9170   0.720   0.135   2.378
 2293SOL    HW2 9171   0.811   0.086   2.489
 2293SOL     MW 9172   0.731   0.095   2.455
 2294SOL     OW 9173   0.507   6.198   6.831
 2294SOL    HW1 9174   0.440   6.266   6.828
 2294SOL    HW2 9175   0.464   6.121   6.795
 2294SOL     MW 9176   0.493   6.197   6.826
 2295SOL     OW 9177   0.303   6.374   5.137
 2295SOL    HW1 9178   0.250   6.376   5.217
 2295SOL    HW2 9179   0.286   6.459   5.095
 2295SOL     MW 9180   0.294   6.385   5.142
 2296SOL     OW 9181  10.130   0.973   8.911
 2296SOL    HW1 9182  10.212   0.963   8.864
 2296SOL    HW2 9183  10.136   1.060   8.953
 2296SOL     MW 9184  10.141   0.983   8.911
 2297SOL     OW 9185   9.715   8.655   3.713
 2297SOL    HW1 9186   9.720   8.715   3.788
 2297SOL    HW2 9187   9.649   8.591   3.739
 2297SOL     MW 9188   9.707   8.655   3.726
 2298SOL     OW 9189   2.301   9.838   6.558
 2298SOL    HW1 9190   2.313   9.915   6.614
 2298SOL    HW2 9191   2.390   9.804   6.546
 2298SOL     MW 9192   2.314   9.843   6.564
 2299SOL     OW 9193   2.233   2.226   0.399
 2299SOL    HW1 9194   2.164   2.212   0.334
 2299SOL    HW2 9195   2.289   2.294   0.361
 2299SOL     MW 9196   2.232   2.233   0.386
 2300SOL     OW 9197   8.835   7.795   2.595
 2300SOL    HW1 9198   8.772   7.821   2.662
 2300SOL    HW2 9199   8.919   7.796   2.640
 2300SOL     MW 9200   8.838   7.798   2.609
 2301SOL     OW 9201   6.258  10.120   3.591
 2301SOL    HW1 9202   6.247  10.196   3.533
 2301SOL    HW2 9203   6.347  10.128   3.624
 2301SOL     MW 9204   6.268  10.131   3.587
 2302SOL     OW 9205   9.258   7.146   2.815
 2302SOL    HW1 9206   9.298   7.078   2.761
 2302SOL    HW2 9207   9.304   7.227   2.790
 2302SOL     MW 9208   9.269   7.148   2.805
 2303SOL     OW 9209   3.115   9.787   4.561
 2303SOL    HW1 9210   3.137   9.879   4.549
 2303SOL    HW2 9211   3.079   9.760   4.477
 2303SOL     MW 9212   3.113   9.795   4.549
 2304SOL     OW 9213   8.460   1.222   0.754
 2304SOL    HW1 9214   8.408   1.253   0.680
 2304SOL    HW2 9215   8.465   1.128   0.743
 2304SOL     MW 9216   8.454   1.214   0.743
 2305SOL     OW 9217   0.615   1.242   2.381
 2305SOL    HW1 9218   0.529   1.274   2.408
 2305SOL    HW2 9219   0.612   1.148   2.397
 2305SOL     MW 9220   0.604   1.234   2.387
 2306SOL     OW 9221   5.592   1.911   5.256
 2306SOL    HW1 9222   5.678   1.875   5.279
 2306SOL    HW2 9223   5.608   2.004   5.242
 2306SOL     MW 9224   5.605   1.918   5.257
 2307SOL     OW 9225   0.931   3.109   3.837
 2307SOL    HW1 9226   0.904   3.042   3.775
 2307SOL    HW2 9227   0.951   3.062   3.917
 2307SOL     MW 9228   0.930   3.095   3.839
 2308SOL     OW 9229   1.694   4.144   9.567
 2308SOL    HW1 9230   1.772   4.112   9.523
 2308SOL    HW2 9231   1.705   4.117   9.658
 2308SOL     MW 9232   1.705   4.136   9.573
 2309SOL     OW 9233   1.601   9.566   9.499
 2309SOL    HW1 9234   1.646   9.530   9.422
 2309SOL    HW2 9235   1.671   9.603   9.553
 2309SOL     MW 9236   1.616   9.566   9.496
 2310SOL     OW 9237   0.729   4.999   6.549
 2310SOL    HW1 9238   0.725   5.084   6.593
 2310SOL    HW2 9239   0.770   4.941   6.613
 2310SOL     MW 9240   0.733   5.002   6.563
 2311SOL     OW 9241   4.280   7.501   9.063
 2311SOL    HW1 9242   4.324   7.535   9.141
 2311SOL    HW2 9243   4.311   7.410   9.057
 2311SOL     MW 9244   4.290   7.494   9.072
 2312SOL     OW 9245   4.756   4.153   5.096
 2312SOL    HW1 9246   4.769   4.074   5.148
 2312SOL    HW2 9247   4.760   4.225   5.160
 2312SOL     MW 9248   4.758   4.152   5.111
 2313SOL     OW 9249   5.154   5.566   2.024
 2313SOL    HW1 9250   5.175   5.645   1.975
 2313SOL    HW2 9251   5.062   5.577   2.050
 2313SOL     MW 9252   5.145   5.578   2.021
 2314SOL     OW 9253   3.671   4.831   2.609
 2314SOL    HW1 9254   3.729   4.815   2.535
 2314SOL    HW2 9255   3.586   4.796   2.581
 2314SOL     MW 9256   3.667   4.825   2.596
 2315SOL     OW 9257   0.724   7.239   5.101
 2315SOL    HW1 9258   0.754   7.327   5.122
 2315SOL    HW2 9259   0.664   7.251   5.027
 2315SOL     MW 9260   0.720   7.252   5.094
 2316SOL     OW 9261   9.177   2.604   9.564
 2316SOL    HW1 9262   9.228   2.684   9.563
 2316SOL    HW2 9263   9.140   2.599   9.652
 2316SOL     MW 9264   9.179   2.614   9.575
 2317SOL     OW 9265   1.101   8.304   8.501
 2317SOL    HW1 9266   1.082   8.296   8.407
 2317SOL    HW2 9267   1.174   8.244   8.515
 2317SOL     MW 9268   1.108   8.296   8.490
 2318SOL     OW 9269   8.328   4.149   3.307
 2318SOL    HW1 9270   8.352   4.168   3.216
 2318SOL    HW2 9271   8.258   4.084   3.300
 2318SOL     MW 9272   8.322   4.143   3.294
 2319SOL     OW 9273   2.050   4.356   1.912
 2319SOL    HW1 9274   2.126   4.413   1.918
 2319SOL    HW2 9275   1.990   4.402   1.852
 2319SOL     MW 9276   2.052   4.369   1.905
 2320SOL     OW 9277   6.523   9.819   0.785
 2320SOL    HW1 9278   6.485   9.793   0.869
 2320SOL    HW2 9279   6.516   9.915   0.784
 2320SOL     MW 9280   6.517   9.828   0.796
 2321SOL     OW 9281   1.361   9.994   6.736
 2321SOL    HW1 9282   1.300  10.052   6.781
 2321SOL    HW2 9283   1.413  10.053   6.681
 2321SOL     MW 9284   1.360  10.009   6.735
 2322SOL     OW 9285   9.691   4.658   7.004
 2322SOL    HW1 9286   9.780   4.624   6.994
 2322SOL    HW2 9287   9.687   4.691   7.094
 2322SOL     MW 9288   9.702   4.658   7.014
 2323SOL     OW 9289   3.593   6.434   2.339
 2323SOL    HW1 9290   3.586   6.529   2.330
 2323SOL    HW2 9291   3.583   6.417   2.433
 2323SOL     MW 9292   3.591   6.444   2.350
 2324SOL     OW 9293   5.606   6.661   7.360
 2324SOL    HW1 9294   5.558   6.732   7.404
 2324SOL    HW2 9295   5.692   6.698   7.342
 2324SOL     MW 9296   5.611   6.675   7.363
 2325SOL     OW 9297   6.720   0.602   8.579
 2325SOL    HW1 9298   6.800   0.632   8.620
 2325SOL    HW2 9299   6.736   0.611   8.485
 2325SOL     MW 9300   6.732   0.607   8.572
 2326SOL     OW 9301   3.871   9.816   6.130
 2326SOL    HW1 9302   3.906   9.740   6.178
 2326SOL    HW2 9303   3.921   9.818   6.049
 2326SOL     MW 9304   3.882   9.806   6.126
 2327SOL     OW 9305   3.397   5.220   2.291
 2327SOL    HW1 9306   3.405   5.274   2.213
 2327SOL    HW2 9307   3.486   5.191   2.310
 2327SOL     MW 9308   3.409   5.223   2.284
 2328SOL     OW 9309   3.059   5.357   8.898
 2328SOL    HW1 9310   3.106   5.274   8.906
 2328SOL    HW2 9311   3.101   5.414   8.963
 2328SOL     MW 9312   3.071   5.354   8.907
 2329SOL     OW 9313   9.487   0.246   8.913
 2329SOL    HW1 9314   9.423   0.313   8.888
 2329SOL    HW2 9315   9.571   0.292   8.915
 2329SOL     MW 9316   9.489   0.261   8.910
 2330SOL     OW 9317   4.997   5.907   2.166
 2330SOL    HW1 9318   5.057   5.910   2.092
 2330SOL    HW2 9319   5.049   5.935   2.241
 2330SOL     MW 9320   5.011   5.911   2.167
 2331SOL     OW 9321  10.018   1.274   5.257
 2331SOL    HW1 9322  10.039   1.187   5.291
 2331SOL    HW2 9323   9.973   1.257   5.174
 2331SOL     MW 9324  10.015   1.260   5.251
 2332SOL     OW 9325   6.658   0.067   5.163
 2332SOL    HW1 9326   6.627   0.157   5.162
 2332SOL    HW2 9327   6.700   0.056   5.077
 2332SOL     MW 9328   6.659   0.077   5.152
 2333SOL     OW 9329   4.339   3.342   3.955
 2333SOL    HW1 9330   4.252   3.359   3.920
 2333SOL    HW2 9331   4.323   3.290   4.035
 2333SOL     MW 9332   4.326   3.337   3.961
 2334SOL     OW 9333   0.095   1.390   7.090
 2334SOL    HW1 9334   0.032   1.393   7.163
 2334SOL    HW2 9335   0.059   1.324   7.031
 2334SOL     MW 9336   0.082   1.382   7.092
 2335SOL     OW 9337   1.607   0.701   1.636
 2335SOL    HW1 9338   1.604   0.616   1.592
 2335SOL    HW2 9339   1.515   0.723   1.651
 2335SOL     MW 9340   1.595   0.693   1.633
 2336SOL     OW 9341   7.423   9.679   7.658
 2336SOL    HW1 9342   7.425   9.730   7.739
 2336SOL    HW2 9343   7.372   9.732   7.597
 2336SOL     MW 9344   7.417   9.692   7.661
 2337SOL     OW 9345   9.104   7.073   4.155
 2337SOL    HW1 9346   9.061   7.155   4.180
 2337SOL    HW2 9347   9.159   7.097   4.080
 2337SOL     MW 9348   9.106   7.087   4.148
 2338SOL     OW 9349   9.953   7.184   8.102
 2338SOL    HW1 9350   9.984   7.237   8.028
 2338SOL    HW2 9351   9.986   7.230   8.179
 2338SOL     MW 9352   9.961   7.197   8.102
 2339SOL     OW 9353   9.753   2.801   3.468
 2339SOL    HW1 9354   9.780   2.735   3.531
 2339SOL    HW2 9355   9.658   2.804   3.476
 2339SOL     MW 9356   9.744   2.793   3.477
 2340SOL     OW 9357   7.661   1.734   0.529
 2340SOL    HW1 9358   7.727   1.742   0.460
 2340SOL    HW2 9359   7.691   1.662   0.583
 2340SOL     MW 9360   7.673   1.726   0.527
 2341SOL     OW 9361   4.242   4.620   4.872
 2341SOL    HW1 9362   4.229   4.711   4.844
 2341SOL    HW2 9363   4.172   4.603   4.935
 2341SOL     MW 9364   4.232   4.630   4.876
 2342SOL     OW 9365   3.449   9.095   7.949
 2342SOL    HW1 9366   3.495   9.103   7.865
 2342SOL    HW2 9367   3.499   9.029   7.997
 2342SOL     MW 9368   3.462   9.088   7.945
 2343SOL     OW 9369   3.551   8.195   7.689
 2343SOL    HW1 9370   3.513   8.155   7.768
 2343SOL    HW2 9371   3.552   8.288   7.708
 2343SOL     MW 9372   3.546   8.201   7.702
 2344SOL     OW 9373   2.320   7.725   8.381
 2344SOL    HW1 9374   2.405   7.757   8.413
 2344SOL    HW2 9375   2.274   7.804   8.352
 2344SOL     MW 9376   2.325   7.739   8.381
 2345SOL     OW 9377   1.802   1.051   0.104
 2345SOL    HW1 9378   1.720   1.045   0.055
 2345SOL    HW2 9379   1.793   0.984   0.172
 2345SOL     MW 9380   1.790   1.041   0.106
 2346SOL     OW 9381   5.475   9.863   7.524
 2346SOL    HW1 9382   5.502   9.828   7.609
 2346SOL    HW2 9383   5.395   9.913   7.543
 2346SOL     MW 9384   5.468   9.865   7.537
 2347SOL     OW 9385   4.335   9.075   0.502
 2347SOL    HW1 9386   4.364   9.160   0.468
 2347SOL    HW2 9387   4.239   9.077   0.493
 2347SOL     MW 9388   4.326   9.086   0.496
 2348SOL     OW 9389   5.746   1.120   0.487
 2348SOL    HW1 9390   5.835   1.085   0.489
 2348SOL    HW2 9391   5.741   1.179   0.563
 2348SOL     MW 9392   5.757   1.123   0.497
 2349SOL     OW 9393   4.544   8.730   6.870
 2349SOL    HW1 9394   4.495   8.668   6.816
 2349SOL    HW2 9395   4.636   8.710   6.851
 2349SOL     MW 9396   4.550   8.719   6.861
 2350SOL     OW 9397   9.026   1.938   8.027
 2350SOL    HW1 9398   9.066   2.023   8.008
 2350SOL    HW2 9399   9.065   1.879   7.962
 2350SOL     MW 9400   9.036   1.941   8.016
 2351SOL     OW 9401   8.768   8.312   4.987
 2351SOL    HW1 9402   8.689   8.350   5.025
 2351SOL    HW2 9403   8.799   8.377   4.925
 2351SOL     MW 9404   8.761   8.325   4.984
 2352SOL     OW 9405   6.646   2.765   8.634
 2352SOL    HW1 9406   6.646   2.672   8.612
 2352SOL    HW2 9407   6.630   2.767   8.728
 2352SOL     MW 9408   6.644   2.753   8.643
 2353SOL     OW 9409   7.843   6.659   2.168
 2353SOL    HW1 9410   7.795   6.598   2.112
 2353SOL    HW2 9411   7.787   6.737   2.172
 2353SOL     MW 9412   7.830   6.661   2.161
 2354SOL     OW 9413   2.665   2.303   3.294
 2354SOL    HW1 9414   2.715   2.226   3.323
 2354SOL    HW2 9415   2.621   2.275   3.214
 2354SOL     MW 9416   2.666   2.289   3.288
 2355SOL     OW 9417   7.815   5.156   1.321
 2355SOL    HW1 9418   7.882   5.118   1.265
 2355SOL    HW2 9419   7.854   5.158   1.408
 2355SOL     MW 9420   7.828   5.152   1.325
 2356SOL     OW 9421   1.795   0.112   5.187
 2356SOL    HW1 9422   1.755   0.191   5.225
 2356SOL    HW2 9423   1.869   0.144   5.136
 2356SOL     MW 9424   1.799   0.126   5.185
 2357SOL     OW 9425   4.667   0.965   0.970
 2357SOL    HW1 9426   4.741   1.000   1.020
 2357SOL    HW2 9427   4.617   0.916   1.035
 2357SOL     MW 9428   4.670   0.963   0.985
 2358SOL     OW 9429   7.848  10.090   8.888
 2358SOL    HW1 9430   7.834  10.180   8.916
 2358SOL    HW2 9431   7.793  10.037   8.946
 2358SOL     MW 9432   7.839  10.095   8.899
 2359SOL     OW 9433   6.160   9.418   2.348
 2359SOL    HW1 9434   6.154   9.476   2.271
 2359SOL    HW2 9435   6.069   9.392   2.365
 2359SOL     MW 9436   6.147   9.422   2.340
 2360SOL     OW 9437   9.923   0.566   4.109
 2360SOL    HW1 9438   9.915   0.505   4.035
 2360SOL    HW2 9439   9.865   0.639   4.085
 2360SOL     MW 9440   9.915   0.568   4.096
 2361SOL     OW 9441   7.861   4.778   4.387
 2361SOL    HW1 9442   7.852   4.725   4.307
 2361SOL    HW2 9443   7.948   4.816   4.382
 2361SOL     MW 9444   7.871   4.776   4.376
 2362SOL     OW 9445   5.738   3.475   7.635
 2362SOL    HW1 9446   5.688   3.438   7.708
 2362SOL    HW2 9447   5.674   3.482   7.564
 2362SOL     MW 9448   5.723   3.471   7.636
 2363SOL     OW 9449   8.872   1.534   9.390
 2363SOL    HW1 9450   8.837   1.466   9.332
 2363SOL    HW2 9451   8.801   1.598   9.397
 2363SOL     MW 9452   8.858   1.534   9.384
 2364SOL     OW 9453   7.036   2.349   1.093
 2364SOL    HW1 9454   7.111   2.392   1.134
 2364SOL    HW2 9455   6.994   2.302   1.164
 2364SOL     MW 9456   7.041   2.348   1.107
 2365SOL     OW 9457   9.123   3.829   4.587
 2365SOL    HW1 9458   9.163   3.916   4.585
 2365SOL    HW2 9459   9.078   3.821   4.503
 2365SOL     MW 9460   9.122   3.839   4.576
 2366SOL     OW 9461   8.941   3.909   5.861
 2366SOL    HW1 9462   8.990   3.984   5.827
 2366SOL    HW2 9463   8.864   3.903   5.803
 2366SOL     MW 9464   8.937   3.918   5.849
 2367SOL     OW 9465   3.624   7.220   3.453
 2367SOL    HW1 9466   3.694   7.275   3.487
 2367SOL    HW2 9467   3.666   7.136   3.435
 2367SOL     MW 9468   3.638   7.216   3.455
 2368SOL     OW 9469   2.421   1.111   9.423
 2368SOL    HW1 9470   2.486   1.165   9.468
 2368SOL    HW2 9471   2.414   1.150   9.336
 2368SOL     MW 9472   2.429   1.123   9.418
 2369SOL     OW 9473   7.769   2.931   3.676
 2369SOL    HW1 9474   7.834   2.980   3.727
 2369SOL    HW2 9475   7.708   2.998   3.645
 2369SOL     MW 9476   7.769   2.946   3.679
 2370SOL     OW 9477   1.671   6.127   9.054
 2370SOL    HW1 9478   1.740   6.149   8.993
 2370SOL    HW2 9479   1.633   6.046   9.020
 2370SOL     MW 9480   1.675   6.120   9.042
 2371SOL     OW 9481   1.775   6.756   2.045
 2371SOL    HW1 9482   1.695   6.760   2.097
 2371SOL    HW2 9483   1.812   6.669   2.065
 2371SOL     MW 9484   1.770   6.745   2.054
 2372SOL     OW 9485   8.242   6.009   5.117
 2372SOL    HW1 9486   8.191   6.065   5.059
 2372SOL    HW2 9487   8.178   5.956   5.163
 2372SOL     MW 9488   8.227   6.010   5.116
 2373SOL     OW 9489   7.276   8.336   0.099
 2373SOL    HW1 9490   7.252   8.248   0.128
 2373SOL    HW2 9491   7.192   8.376   0.074
 2373SOL     MW 9492   7.262   8.330   0.100
 2374SOL     OW 9493   5.310   6.316   7.514
 2374SOL    HW1 9494   5.385   6.348   7.464
 2374SOL    HW2 9495   5.241   6.305   7.448
 2374SOL     MW 9496   5.311   6.319   7.499
 2375SOL     OW 9497   8.400   9.971   7.289
 2375SOL    HW1 9498   8.315  10.008   7.311
 2375SOL    HW2 9499   8.398   9.883   7.327
 2375SOL     MW 9500   8.389   9.964   7.297
 2376SOL     OW 9501   1.364   3.596   7.215
 2376SOL    HW1 9502   1.298   3.664   7.201
 2376SOL    HW2 9503   1.323   3.515   7.184
 2376SOL     MW 9504   1.350   3.594   7.210
 2377SOL     OW 9505   3.220   5.131   8.896
 2377SOL    HW1 9506   3.244   5.146   8.805
 2377SOL    HW2 9507   3.183   5.043   8.898
 2377SOL     MW 9508   3.218   5.122   8.885
 2378SOL     OW 9509   8.325   5.270   7.194
 2378SOL    HW1 9510   8.343   5.360   7.164
 2378SOL    HW2 9511   8.249   5.278   7.251
 2378SOL     MW 9512   8.318   5.283   7.197
 2379SOL     OW 9513   4.301   1.170   0.166
 2379SOL    HW1 9514   4.291   1.178   0.071
 2379SOL    HW2 9515   4.354   1.092   0.178
 2379SOL     MW 9516   4.306   1.161   0.155
 2380SOL     OW 9517   7.081   6.911   9.108
 2380SOL    HW1 9518   7.036   6.929   9.026
 2380SOL    HW2 9519   7.030   6.840   9.148
 2380SOL     MW 9520   7.068   6.904   9.103
 2381SOL     OW 9521   3.328   3.581   2.418
 2381SOL    HW1 9522   3.274   3.571   2.497
 2381SOL    HW2 9523   3.292   3.518   2.356
 2381SOL     MW 9524   3.316   3.572   2.420
 2382SOL     OW 9525   9.137   1.603   9.422
 2382SOL    HW1 9526   9.048   1.570   9.417
 2382SOL    HW2 9527   9.140   1.676   9.360
 2382SOL     MW 9528   9.126   1.608   9.414
 2383SOL     OW 9529   1.708   4.080   2.496
 2383SOL    HW1 9530   1.708   4.168   2.460
 2383SOL    HW2 9531   1.641   4.033   2.445
 2383SOL     MW 9532   1.700   4.085   2.485
 2384SOL     OW 9533   6.595   3.437   7.935
 2384SOL    HW1 9534   6.548   3.356   7.915
 2384SOL    HW2 9535   6.532   3.506   7.916
 2384SOL     MW 9536   6.581   3.435   7.930
 2385SOL     OW 9537   8.031   7.105   0.519
 2385SOL    HW1 9538   8.061   7.161   0.590
 2385SOL    HW2 9539   8.110   7.060   0.489
 2385SOL     MW 9540   8.045   7.106   0.524
 2386SOL     OW 9541   3.267   7.962   4.192
 2386SOL    HW1 9542   3.330   8.000   4.253
 2386SOL    HW2 9543   3.293   7.870   4.183
 2386SOL     MW 9544   3.278   7.955   4.199
 2387SOL     OW 9545   8.436   7.634   0.256
 2387SOL    HW1 9546   8.433   7.547   0.297
 2387SOL    HW2 9547   8.510   7.678   0.298
 2387SOL     MW 9548   8.445   7.628   0.267
 2388SOL     OW 9549   1.678   8.369   7.029
 2388SOL    HW1 9550   1.636   8.406   6.951
 2388SOL    HW2 9551   1.698   8.446   7.083
 2388SOL     MW 9552   1.675   8.384   7.026
 2389SOL     OW 9553   7.554   9.189   7.560
 2389SOL    HW1 9554   7.583   9.172   7.650
 2389SOL    HW2 9555   7.540   9.284   7.557
 2389SOL     MW 9556   7.556   9.199   7.572
 2390SOL     OW 9557   7.937   3.928   3.475
 2390SOL    HW1 9558   7.846   3.926   3.446
 2390SOL    HW2 9559   7.955   3.838   3.502
 2390SOL     MW 9560   7.928   3.916   3.475
 2391SOL     OW 9561   2.499   3.769   3.763
 2391SOL    HW1 9562   2.434   3.838   3.778
 2391SOL    HW2 9563   2.447   3.690   3.747
 2391SOL     MW 9564   2.484   3.768   3.763
 2392SOL     OW 9565   2.610   7.599   7.676
 2392SOL    HW1 9566   2.685   7.568   7.625
 2392SOL    HW2 9567   2.593   7.528   7.738
 2392SOL     MW 9568   2.618   7.586   7.678
 2393SOL     OW 9569   4.801   5.304   1.108
 2393SOL    HW1 9570   4.741   5.378   1.119
 2393SOL    HW2 9571   4.887   5.344   1.099
 2393SOL     MW 9572   4.804   5.319   1.108
 2394SOL     OW 9573   0.344   9.708   4.448
 2394SOL    HW1 9574   0.306   9.660   4.522
 2394SOL    HW2 9575   0.290   9.788   4.441
 2394SOL     MW 9576   0.332   9.712   4.457
 2395SOL     OW 9577   6.334   2.456   6.321
 2395SOL    HW1 9578   6.410   2.504   6.354
 2395SOL    HW2 9579   6.311   2.396   6.392
 2395SOL     MW 9580   6.341   2.454   6.334
 2396SOL     OW 9581   3.445  10.147   4.889
 2396SOL    HW1 9582   3.502  10.098   4.948
 2396SOL    HW2 9583   3.438  10.090   4.812
 2396SOL     MW 9584   3.451  10.133   4.887
 2397SOL     OW 9585   2.386   5.775   0.943
 2397SOL    HW1 9586   2.464   5.734   0.906
 2397SOL    HW2 9587   2.383   5.861   0.901
 2397SOL     MW 9588   2.396   5.781   0.933
 2398SOL     OW 9589   7.076   1.655   2.273
 2398SOL    HW1 9590   7.054   1.582   2.215
 2398SOL    HW2 9591   7.168   1.673   2.255
 2398SOL     MW 9592   7.085   1.648   2.263
 2399SOL     OW 9593   6.416   3.784   2.596
 2399SOL    HW1 9594   6.448   3.695   2.610
 2399SOL    HW2 9595   6.475   3.839   2.648
 2399SOL     MW 9596   6.428   3.779   2.604
 2400SOL     OW 9597   9.079   4.946   7.006
 2400SOL    HW1 9598   9.005   4.910   7.055
 2400SOL    HW2 9599   9.112   4.872   6.955
 2400SOL     MW 9600   9.074   4.932   7.006
 2401SOL     OW 9601   1.535   5.551   8.492
 2401SOL    HW1 9602   1.504   5.521   8.577
 2401SOL    HW2 9603   1.535   5.647   8.499
 2401SOL     MW 9604   1.531   5.560   8.504
 2402SOL     OW 9605   2.225   8.605   6.385
 2402SOL    HW1 9606   2.282   8.661   6.438
 2402SOL    HW2 9607   2.138   8.615   6.425
 2402SOL     MW 9608   2.221   8.614   6.397
 2403SOL     OW 9609   0.442   5.237   4.385
 2403SOL    HW1 9610   0.420   5.199   4.300
 2403SOL    HW2 9611   0.499   5.311   4.365
 2403SOL     MW 9612   0.446   5.242   4.372
 2404SOL     OW 9613   4.954   0.890   8.278
 2404SOL    HW1 9614   5.028   0.943   8.309
 2404SOL    HW2 9615   4.985   0.800   8.286
 2404SOL     MW 9616   4.968   0.886   8.283
 2405SOL     OW 9617   3.527   7.512   3.007
 2405SOL    HW1 9618   3.616   7.515   2.971
 2405SOL    HW2 9619   3.536   7.464   3.090
 2405SOL     MW 9620   3.540   7.506   3.013
 2406SOL     OW 9621  10.070   0.235   3.764
 2406SOL    HW1 9622  10.047   0.142   3.772
 2406SOL    HW2 9623  10.162   0.240   3.788
 2406SOL     MW 9624  10.079   0.224   3.768
 2407SOL     OW 9625   8.194   8.303   6.006
 2407SOL    HW1 9626   8.244   8.223   6.023
 2407SOL    HW2 9627   8.257   8.374   6.020
 2407SOL     MW 9628   8.208   8.302   6.010
 2408SOL     OW 9629   0.672   6.085   7.262
 2408SOL    HW1 9630   0.651   6.093   7.355
 2408SOL    HW2 9631   0.731   6.010   7.257
 2408SOL     MW 9632   0.677   6.076   7.273
 2409SOL     OW 9633   8.885   7.151   7.885
 2409SOL    HW1 9634   8.868   7.181   7.796
 2409SOL    HW2 9635   8.846   7.218   7.941
 2409SOL     MW 9636   8.878   7.163   7.881
 2410SOL     OW 9637   8.472  10.150   1.314
 2410SOL    HW1 9638   8.459  10.094   1.390
 2410SOL    HW2 9639   8.445  10.097   1.239
 2410SOL     MW 9640   8.467  10.136   1.314
 2411SOL     OW 9641   1.021   8.364   8.932
 2411SOL    HW1 9642   0.944   8.392   8.982
 2411SOL    HW2 9643   1.007   8.399   8.844
 2411SOL     MW 9644   1.009   8.372   8.927
 2412SOL     OW 9645   1.487   5.069   4.296
 2412SOL    HW1 9646   1.400   5.032   4.282
 2412SOL    HW2 9647   1.529   5.065   4.210
 2412SOL     MW 9648   1.482   5.064   4.284
 2413SOL     OW 9649   4.090   2.684   1.041
 2413SOL    HW1 9650   4.061   2.601   1.005
 2413SOL    HW2 9651   4.185   2.686   1.026
 2413SOL     MW 9652   4.099   2.674   1.035
 2414SOL     OW 9653   6.592   8.483   9.217
 2414SOL    HW1 9654   6.521   8.487   9.280
 2414SOL    HW2 9655   6.668   8.521   9.263
 2414SOL     MW 9656   6.593   8.488   9.231
 2415SOL     OW 9657   8.161   8.096   8.114
 2415SOL    HW1 9658   8.208   8.015   8.137
 2415SOL    HW2 9659   8.177   8.107   8.020
 2415SOL     MW 9660   8.169   8.087   8.105
 2416SOL     OW 9661   7.547   7.134   0.373
 2416SOL    HW1 9662   7.641   7.149   0.377
 2416SOL    HW2 9663   7.535   7.078   0.296
 2416SOL     MW 9664   7.557   7.129   0.364
 2417SOL     OW 9665   6.064   1.730   3.081
 2417SOL    HW1 9666   6.108   1.761   3.002
 2417SOL    HW2 9667   5.978   1.772   3.080
 2417SOL     MW 9668   6.059   1.739   3.071
 2418SOL     OW 9669   6.024   5.521   4.885
 2418SOL    HW1 9670   6.104   5.471   4.871
 2418SOL    HW2 9671   5.954   5.457   4.872
 2418SOL     MW 9672   6.025   5.506   4.882
 2419SOL     OW 9673   1.708   6.834   1.787
 2419SOL    HW1 9674   1.732   6.793   1.870
 2419SOL    HW2 9675   1.732   6.926   1.798
 2419SOL     MW 9676   1.714   6.840   1.799
 2420SOL     OW 9677   9.706   7.402   4.555
 2420SOL    HW1 9678   9.794   7.377   4.583
 2420SOL    HW2 9679   9.720   7.448   4.472
 2420SOL     MW 9680   9.719   7.404   4.548
 2421SOL     OW 9681   7.229   1.064   8.513
 2421SOL    HW1 9682   7.172   1.110   8.451
 2421SOL    HW2 9683   7.207   1.102   8.598
 2421SOL     MW 9684   7.219   1.075   8.516
 2422SOL     OW 9685   8.181   9.557   4.291
 2422SOL    HW1 9686   8.265   9.539   4.249
 2422SOL    HW2 9687   8.200   9.625   4.355
 2422SOL     MW 9688   8.194   9.563   4.293
 2423SOL     OW 9689   7.841   7.816   3.081
 2423SOL    HW1 9690   7.871   7.901   3.051
 2423SOL    HW2 9691   7.805   7.774   3.002
 2423SOL     MW 9692   7.840   7.821   3.067
 2424SOL     OW 9693   6.619   2.872   0.338
 2424SOL    HW1 9694   6.701   2.846   0.297
 2424SOL    HW2 9695   6.553   2.864   0.269
 2424SOL     MW 9696   6.621   2.868   0.324
 2425SOL     OW 9697   4.160   0.092   7.029
 2425SOL    HW1 9698   4.077   0.109   7.074
 2425SOL    HW2 9699   4.215   0.050   7.096
 2425SOL     MW 9700   4.157   0.089   7.044
 2426SOL     OW 9701   6.056   3.044   9.524
 2426SOL    HW1 9702   6.139   3.036   9.477
 2426SOL    HW2 9703   6.062   2.980   9.595
 2426SOL     MW 9704   6.067   3.035   9.528
 2427SOL     OW 9705   6.641   3.479   2.879
 2427SOL    HW1 9706   6.727   3.519   2.891
 2427SOL    HW2 9707   6.633   3.417   2.951
 2427SOL     MW 9708   6.651   3.476   2.890
 2428SOL     OW 9709  10.062   3.760   6.802
 2428SOL    HW1 9710   9.981   3.746   6.753
 2428SOL    HW2 9711  10.033   3.794   6.887
 2428SOL     MW 9712  10.048   3.763   6.807
 2429SOL     OW 9713   1.411   3.328   0.182
 2429SOL    HW1 9714   1.449   3.383   0.114
 2429SOL    HW2 9715   1.485   3.303   0.237
 2429SOL     MW 9716   1.425   3.332   0.181
 2430SOL     OW 9717   6.096   2.796   6.139
 2430SOL    HW1 9718   6.143   2.714   6.155
 2430SOL    HW2 9719   6.004   2.775   6.156
 2430SOL     MW 9720   6.091   2.783   6.143
 2431SOL     OW 9721   2.762   5.301   6.977
 2431SOL    HW1 9722   2.836   5.311   7.037
 2431SOL    HW2 9723   2.774   5.214   6.938
 2431SOL     MW 9724   2.773   5.291   6.979
 2432SOL     OW 9725   6.792   2.482   2.871
 2432SOL    HW1 9726   6.831   2.543   2.809
 2432SOL    HW2 9727   6.851   2.484   2.947
 2432SOL     MW 9728   6.805   2.490   2.873
 2433SOL     OW 9729   0.376   0.360   9.284
 2433SOL    HW1 9730   0.356   0.400   9.369
 2433SOL    HW2 9731   0.343   0.422   9.219
 2433SOL     MW 9732   0.369   0.373   9.287
 2434SOL     OW 9733   3.101   3.305   0.822
 2434SOL    HW1 9734   3.130   3.347   0.903
 2434SOL    HW2 9735   3.065   3.221   0.849
 2434SOL     MW 9736   3.100   3.300   0.836
 2435SOL     OW 9737   1.493   9.549   6.610
 2435SOL    HW1 9738   1.465   9.472   6.659
 2435SOL    HW2 9739   1.430   9.617   6.634
 2435SOL     MW 9740   1.482   9.548   6.619
 2436SOL     OW 9741   6.474   3.796   6.434
 2436SOL    HW1 9742   6.429   3.719   6.399
 2436SOL    HW2 9743   6.540   3.817   6.367
 2436SOL     MW 9744   6.477   3.789   6.421
 2437SOL     OW 9745   4.002   4.651   2.260
 2437SOL    HW1 9746   3.955   4.569   2.246
 2437SOL    HW2 9747   4.093   4.631   2.236
 2437SOL     MW 9748   4.008   4.638   2.255
 2438SOL     OW 9749   0.142   2.711   9.043
 2438SOL    HW1 9750   0.210   2.657   9.084
 2438SOL    HW2 9751   0.127   2.670   8.958
 2438SOL     MW 9752   0.149   2.699   9.037
 2439SOL     OW 9753   0.853   3.399   9.822
 2439SOL    HW1 9754   0.762   3.388   9.794
 2439SOL    HW2 9755   0.869   3.327   9.882
 2439SOL     MW 9756   0.844   3.389   9.826
 2440SOL     OW 9757   0.959   5.358   6.790
 2440SOL    HW1 9758   0.978   5.314   6.873
 2440SOL    HW2 9759   0.879   5.317   6.758
 2440SOL     MW 9760   0.951   5.347   6.796
 2441SOL     OW 9761   4.475   9.051   3.996
 2441SOL    HW1 9762   4.493   9.144   4.011
 2441SOL    HW2 9763   4.418   9.050   3.919
 2441SOL     MW 9764   4.470   9.063   3.988
 2442SOL     OW 9765   5.147   9.854   6.167
 2442SOL    HW1 9766   5.136   9.796   6.243
 2442SOL    HW2 9767   5.059   9.888   6.151
 2442SOL     MW 9768   5.134   9.851   6.175
 2443SOL     OW 9769   5.024   4.001   1.157
 2443SOL    HW1 9770   4.989   3.992   1.245
 2443SOL    HW2 9771   4.949   4.023   1.103
 2443SOL     MW 9772   5.010   4.003   1.161
 2444SOL     OW 9773   2.985   4.782   5.973
 2444SOL    HW1 9774   2.935   4.860   5.949
 2444SOL    HW2 9775   3.058   4.781   5.911
 2444SOL     MW 9776   2.988   4.792   5.962
 2445SOL     OW 9777   3.460   7.467   3.751
 2445SOL    HW1 9778   3.394   7.480   3.820
 2445SOL    HW2 9779   3.433   7.525   3.680
 2445SOL     MW 9780   3.448   7.476   3.751
 2446SOL     OW 9781   9.342   7.435   3.277
 2446SOL    HW1 9782   9.415   7.387   3.238
 2446SOL    HW2 9783   9.343   7.520   3.233
 2446SOL     MW 9784   9.352   7.439   3.267
 2447SOL     OW 9785   4.822   7.037   6.532
 2447SOL    HW1 9786   4.782   7.122   6.515
 2447SOL    HW2 9787   4.764   6.997   6.597
 2447SOL     MW 9788   4.809   7.043   6.539
 2448SOL     OW 9789   6.219   6.284   2.164
 2448SOL    HW1 9790   6.236   6.378   2.161
 2448SOL    HW2 9791   6.124   6.278   2.176
 2448SOL     MW 9792   6.209   6.296   2.165
 2449SOL     OW 9793   1.953   0.842   8.733
 2449SOL    HW1 9794   1.927   0.915   8.790
 2449SOL    HW2 9795   2.038   0.814   8.768
 2449SOL     MW 9796   1.961   0.848   8.745
 2450SOL     OW 9797   7.481   7.963   2.222
 2450SOL    HW1 9798   7.514   8.053   2.215
 2450SOL    HW2 9799   7.403   7.963   2.166
 2450SOL     MW 9800   7.475   7.975   2.214
 2451SOL     OW 9801   9.342   6.095   8.105
 2451SOL    HW1 9802   9.271   6.156   8.081
 2451SOL    HW2 9803   9.298   6.026   8.154
 2451SOL     MW 9804   9.327   6.094   8.108
 2452SOL     OW 9805   0.898   6.532   5.761
 2452SOL    HW1 9806   0.901   6.454   5.817
 2452SOL    HW2 9807   0.809   6.533   5.726
 2452SOL     MW 9808   0.887   6.522   5.764
 2453SOL     OW 9809   9.227   3.916   6.916
 2453SOL    HW1 9810   9.288   3.895   6.987
 2453SOL    HW2 9811   9.237   4.010   6.902
 2453SOL     MW 9812   9.236   3.925   6.923
 2454SOL     OW 9813   6.443   6.359   3.429
 2454SOL    HW1 9814   6.516   6.387   3.485
 2454SOL    HW2 9815   6.432   6.266   3.450
 2454SOL     MW 9816   6.451   6.351   3.439
 2455SOL     OW 9817   8.623   6.304   0.774
 2455SOL    HW1 9818   8.636   6.295   0.868
 2455SOL    HW2 9819   8.664   6.226   0.737
 2455SOL     MW 9820   8.630   6.293   0.781
 2456SOL     OW 9821   3.702   2.668   6.774
 2456SOL    HW1 9822   3.614   2.699   6.794
 2456SOL    HW2 9823   3.739   2.736   6.716
 2456SOL     MW 9824   3.696   2.681   6.769
 2457SOL     OW 9825   7.789   0.186   8.939
 2457SOL    HW1 9826   7.715   0.221   8.989
 2457SOL    HW2 9827   7.768   0.207   8.848
 2457SOL     MW 9828   7.777   0.193   8.933
 2458SOL     OW 9829   0.961   7.417   4.887
 2458SOL    HW1 9830   0.951   7.322   4.894
 2458SOL    HW2 9831   0.929   7.450   4.971
 2458SOL     MW 9832   0.956   7.409   4.899
 2459SOL     OW 9833   3.991   1.513   3.446
 2459SOL    HW1 9834   4.020   1.460   3.520
 2459SOL    HW2 9835   4.063   1.574   3.430
 2459SOL     MW 9836   4.004   1.514   3.454
 2460SOL     OW 9837   9.607   5.419   9.974
 2460SOL    HW1 9838   9.658   5.404   9.895
 2460SOL    HW2 9839   9.654   5.489  10.020
 2460SOL     MW 9840   9.620   5.426   9.970
 2461SOL     OW 9841   5.397   5.800   2.835
 2461SOL    HW1 9842   5.357   5.776   2.751
 2461SOL    HW2 9843   5.472   5.741   2.844
 2461SOL     MW 9844   5.401   5.789   2.825
 2462SOL     OW 9845   8.611   6.246   7.051
 2462SOL    HW1 9846   8.573   6.178   7.107
 2462SOL    HW2 9847   8.558   6.324   7.070
 2462SOL     MW 9848   8.599   6.247   7.061
 2463SOL     OW 9849   3.150   0.183   0.863
 2463SOL    HW1 9850   3.241   0.156   0.873
 2463SOL    HW2 9851   3.105   0.103   0.835
 2463SOL     MW 9852   3.156   0.169   0.861
 2464SOL     OW 9853   5.464   1.291   3.588
 2464SOL    HW1 9854   5.466   1.258   3.678
 2464SOL    HW2 9855   5.371   1.307   3.571
 2464SOL     MW 9856   5.453   1.288   3.597
 2465SOL     OW 9857   9.108   6.368   1.355
 2465SOL    HW1 9858   9.078   6.402   1.439
 2465SOL    HW2 9859   9.059   6.286   1.343
 2465SOL     MW 9860   9.098   6.362   1.364
 2466SOL     OW 9861   4.166   8.045   8.019
 2466SOL    HW1 9862   4.174   7.958   8.059
 2466SOL    HW2 9863   4.252   8.085   8.030
 2466SOL     MW 9864   4.178   8.039   8.025
 2467SOL     OW 9865   8.377   3.485   7.453
 2467SOL    HW1 9866   8.420   3.570   7.452
 2467SOL    HW2 9867   8.283   3.505   7.457
 2467SOL     MW 9868   8.370   3.498   7.454
 2468SOL     OW 9869   5.975   5.620   9.659
 2468SOL    HW1 9870   6.005   5.710   9.673
 2468SOL    HW2 9871   5.883   5.621   9.683
 2468SOL     MW 9872   5.967   5.632   9.664
 2469SOL     OW 9873   7.619   1.347   2.144
 2469SOL    HW1 9874   7.528   1.320   2.132
 2469SOL    HW2 9875   7.665   1.266   2.166
 2469SOL     MW 9876   7.613   1.333   2.145
 2470SOL     OW 9877   0.092   1.205   7.468
 2470SOL    HW1 9878   0.077   1.112   7.452
 2470SOL    HW2 9879   0.162   1.229   7.407
 2470SOL     MW 9880   0.099   1.196   7.458
 2471SOL     OW 9881  10.082   2.529   1.243
 2471SOL    HW1 9882  10.115   2.566   1.161
 2471SOL    HW2 9883  10.075   2.435   1.226
 2471SOL     MW 9884  10.085   2.522   1.231
 2472SOL     OW 9885   8.331   1.962   6.937
 2472SOL    HW1 9886   8.333   1.937   6.844
 2472SOL    HW2 9887   8.394   2.034   6.943
 2472SOL     MW 9888   8.340   1.968   6.926
 2473SOL     OW 9889   7.862   7.292   7.677
 2473SOL    HW1 9890   7.900   7.319   7.761
 2473SOL    HW2 9891   7.795   7.358   7.658
 2473SOL     MW 9892   7.859   7.304   7.685
 2474SOL     OW 9893   9.865   7.268   0.209
 2474SOL    HW1 9894   9.815   7.199   0.166
 2474SOL    HW2 9895   9.886   7.233   0.295
 2474SOL     MW 9896   9.861   7.255   0.215
 2475SOL     OW 9897   9.097   6.091   1.605
 2475SOL    HW1 9898   9.170   6.145   1.576
 2475SOL    HW2 9899   9.136   6.008   1.629
 2475SOL     MW 9900   9.111   6.088   1.604
 2476SOL     OW 9901   8.815   0.539   0.216
 2476SOL    HW1 9902   8.850   0.604   0.154
 2476SOL    HW2 9903   8.809   0.586   0.299
 2476SOL     MW 9904   8.819   0.554   0.218
 2477SOL     OW 9905   0.760   1.900   5.593
 2477SOL    HW1 9906   0.753   1.814   5.553
 2477SOL    HW2 9907   0.816   1.950   5.533
 2477SOL     MW 9908   0.766   1.895   5.580
 2478SOL     OW 9909   5.964   4.256   9.311
 2478SOL    HW1 9910   5.918   4.243   9.393
 2478SOL    HW2 9911   5.895   4.255   9.244
 2478SOL     MW 9912   5.949   4.254   9.313
 2479SOL     OW 9913   7.089   3.526   2.756
 2479SOL    HW1 9914   7.063   3.469   2.684
 2479SOL    HW2 9915   7.124   3.604   2.713
 2479SOL     MW 9916   7.090   3.529   2.741
 2480SOL     OW 9917   9.301   2.359   8.121
 2480SOL    HW1 9918   9.306   2.379   8.028
 2480SOL    HW2 9919   9.392   2.340   8.146
 2480SOL     MW 9920   9.314   2.359   8.112
 2481SOL     OW 9921   8.270   5.758   4.998
 2481SOL    HW1 9922   8.352   5.747   4.950
 2481SOL    HW2 9923   8.274   5.848   5.032
 2481SOL     MW 9924   8.281   5.768   4.997
 2482SOL     OW 9925   2.240   8.464   5.916
 2482SOL    HW1 9926   2.147   8.442   5.913
 2482SOL    HW2 9927   2.262   8.458   6.009
 2482SOL     MW 9928   2.231   8.461   5.928
 2483SOL     OW 9929   0.286   3.521   1.738
 2483SOL    HW1 9930   0.218   3.505   1.672
 2483SOL    HW2 9931   0.349   3.451   1.726
 2483SOL     MW 9932   0.285   3.510   1.728
 2484SOL     OW 9933   0.502   4.138   5.006
 2484SOL    HW1 9934   0.463   4.170   5.088
 2484SOL    HW2 9935   0.489   4.209   4.944
 2484SOL     MW 9936   0.495   4.151   5.009
 2485SOL     OW 9937   4.273   7.607   1.226
 2485SOL    HW1 9938   4.354   7.628   1.181
 2485SOL    HW2 9939   4.223   7.689   1.227
 2485SOL     MW 9940   4.277   7.620   1.220
 2486SOL     OW 9941   5.016   9.931   1.944
 2486SOL    HW1 9942   5.041   9.838   1.948
 2486SOL    HW2 9943   4.984   9.944   1.855
 2486SOL     MW 9944   5.015   9.921   1.933
 2487SOL     OW 9945   5.289   1.995   8.498
 2487SOL    HW1 9946   5.350   2.044   8.444
 2487SOL    HW2 9947   5.224   2.059   8.527
 2487SOL     MW 9948   5.288   2.009   8.495
 2488SOL     OW 9949   4.905  10.126   4.367
 2488SOL    HW1 9950   4.813  10.102   4.377
 2488SOL    HW2 9951   4.945  10.103   4.451
 2488SOL     MW 9952   4.898  10.120   4.379
 2489SOL     OW 9953   7.195   8.802   5.645
 2489SOL    HW1 9954   7.206   8.715   5.682
 2489SOL    HW2 9955   7.104   8.806   5.618
 2489SOL     MW 9956   7.185   8.792   5.647
 2490SOL     OW 9957   2.477   7.627   9.065
 2490SOL    HW1 9958   2.568   7.618   9.035
 2490SOL    HW2 9959   2.425   7.605   8.988
 2490SOL     MW 9960   2.482   7.623   9.051
 2491SOL     OW 9961  10.069   2.255   1.180
 2491SOL    HW1 9962  10.048   2.192   1.249
 2491SOL    HW2 9963  10.101   2.201   1.107
 2491SOL     MW 9964  10.071   2.240   1.179
 2492SOL     OW 9965   9.806   2.318   4.601
 2492SOL    HW1 9966   9.746   2.306   4.527
 2492SOL    HW2 9967   9.749   2.333   4.676
 2492SOL     MW 9968   9.791   2.318   4.601
 2493SOL     OW 9969   9.051   5.590   4.739
 2493SOL    HW1 9970   9.085   5.675   4.766
 2493SOL    HW2 9971   8.995   5.610   4.663
 2493SOL     MW 9972   9.048   5.603   4.733
 2494SOL     OW 9973   4.105   4.874   4.869
 2494SOL    HW1 9974   4.150   4.952   4.901
 2494SOL    HW2 9975   4.037   4.908   4.812
 2494SOL     MW 9976   4.102   4.888   4.866
 2495SOL     OW 9977   8.827   5.779   9.456
 2495SOL    HW1 9978   8.854   5.688   9.466
 2495SOL    HW2 9979   8.737   5.781   9.487
 2495SOL     MW 9980   8.819   5.768   9.461
 2496SOL     OW 9981   2.465   2.864   6.942
 2496SOL    HW1 9982   2.410   2.941   6.954
 2496SOL    HW2 9983   2.491   2.839   7.031
 2496SOL     MW 9984   2.462   2.871   6.955
 2497SOL     OW 9985   5.729   9.385   1.209
 2497SOL    HW1 9986   5.679   9.325   1.264
 2497SOL    HW2 9987   5.737   9.340   1.125
 2497SOL     MW 9988   5.724   9.372   1.205
 2498SOL     OW 9989   3.169   5.627   3.559
 2498SOL    HW1 9990   3.147   5.540   3.592
 2498SOL    HW2 9991   3.131   5.630   3.471
 2498SOL     MW 9992   3.161   5.616   3.552
 2499SOL     OW 9993   7.265   1.662   4.385
 2499SOL    HW1 9994   7.252   1.569   4.404
 2499SOL    HW2 9995   7.185   1.704   4.418
 2499SOL     MW 9996   7.253   1.656   4.392
 2500SOL     OW 9997   9.474   8.790   9.479
 2500SOL    HW1 9998   9.562   8.761   9.455
 2500SOL    HW2 9999   9.482   8.885   9.488
 2500SOL     MW10000   9.486   8.798   9.477
 2501SOL     OW10001   1.780   2.577   1.940
 2501SOL    HW110002   1.768   2.483   1.925
 2501SOL    HW210003   1.702   2.604   1.988
 2501SOL     MW10004   1.769   2.568   1.944
 2502SOL     OW10005   9.651   0.706   2.693
 2502SOL    HW110006   9.591   0.775   2.665
 2502SOL    HW210007   9.656   0.646   2.618
 2502SOL     MW10008   9.644   0.707   2.680
 2503SOL     OW10009   4.243   9.732   2.054
 2503SOL    HW110010   4.222   9.640   2.036
 2503SOL    HW210011   4.182   9.757   2.123
 2503SOL     MW10012   4.233   9.723   2.061
 2504SOL     OW10013   3.090   5.191   0.489
 2504SOL    HW110014   3.120   5.160   0.404
 2504SOL    HW210015   3.103   5.286   0.486
 2504SOL     MW10016   3.096   5.199   0.478
 2505SOL     OW10017   5.597   8.135   5.999
 2505SOL    HW110018   5.521   8.115   6.053
 2505SOL    HW210019   5.672   8.122   6.058
 2505SOL     MW10020   5.597   8.131   6.014
 2506SOL     OW10021   8.629   6.284   1.045
 2506SOL    HW110022   8.545   6.325   1.068
 2506SOL    HW210023   8.679   6.286   1.127
 2506SOL     MW10024   8.624   6.289   1.059
 2507SOL     OW10025   9.652   5.357   2.330
 2507SOL    HW110026   9.674   5.437   2.283
 2507SOL    HW210027   9.693   5.368   2.416
 2507SOL     MW10028   9.660   5.369   2.335
 2508SOL     OW10029   0.470   4.293   8.479
 2508SOL    HW110030   0.386   4.246   8.487
 2508SOL    HW210031   0.447   4.375   8.434
 2508SOL     MW10032   0.456   4.298   8.474
 2509SOL     OW10033   3.670   3.492   6.569
 2509SOL    HW110034   3.749   3.542   6.547
 2509SOL    HW210035   3.612   3.505   6.493
 2509SOL     MW10036   3.673   3.500   6.556
 2510SOL     OW10037   0.170   3.690   5.313
 2510SOL    HW110038   0.191   3.782   5.293
 2510SOL    HW210039   0.136   3.692   5.402
 2510SOL     MW10040   0.168   3.702   5.322
 2511SOL     OW10041   0.607   9.795   7.431
 2511SOL    HW110042   0.648   9.856   7.370
 2511SOL    HW210043   0.663   9.798   7.509
 2511SOL     MW10044   0.619   9.803   7.433
 2512SOL     OW10045   3.610   0.395   9.886
 2512SOL    HW110046   3.590   0.370   9.976
 2512SOL    HW210047   3.659   0.321   9.850
 2512SOL     MW10048   3.614   0.382   9.893
 2513SOL     OW10049   0.716   3.960   5.031
 2513SOL    HW110050   0.652   4.031   5.028
 2513SOL    HW210051   0.666   3.881   5.007
 2513SOL     MW10052   0.701   3.959   5.028
 2514SOL     OW10053   8.810   5.323   2.035
 2514SOL    HW110054   8.795   5.328   2.130
 2514SOL    HW210055   8.757   5.395   1.999
 2514SOL     MW10056   8.801   5.333   2.043
 2515SOL     OW10057   6.131   0.211   9.165
 2515SOL    HW110058   6.123   0.116   9.154
 2515SOL    HW210059   6.063   0.235   9.227
 2515SOL     MW10060   6.122   0.202   9.171
 2516SOL     OW10061   9.418   7.062   5.513
 2516SOL    HW110062   9.494   7.039   5.567
 2516SOL    HW210063   9.396   7.151   5.539
 2516SOL     MW10064   9.425   7.070   5.523
 2517SOL     OW10065   5.077   4.810   8.233
 2517SOL    HW110066   5.163   4.782   8.202
 2517SOL    HW210067   5.033   4.729   8.258
 2517SOL     MW10068   5.082   4.796   8.232
 2518SOL     OW10069   8.925   1.329   0.720
 2518SOL    HW110070   8.930   1.391   0.648
 2518SOL    HW210071   8.838   1.342   0.757
 2518SOL     MW10072   8.914   1.338   0.716
 2519SOL     OW10073   4.332   1.359   2.507
 2519SOL    HW110074   4.364   1.446   2.485
 2519SOL    HW210075   4.292   1.327   2.426
 2519SOL     MW10076   4.331   1.366   2.494
 2520SOL     OW10077  10.082  10.159   6.724
 2520SOL    HW110078   9.995  10.158   6.683
 2520SOL    HW210079  10.065  10.136   6.815
 2520SOL     MW10080  10.068  10.156   6.730
 2521SOL     OW10081  10.049   5.010   3.139
 2521SOL    HW110082   9.964   5.035   3.175
 2521SOL    HW210083  10.047   4.914   3.135
 2521SOL     MW10084  10.038   5.001   3.144
 2522SOL     OW10085   8.200   6.807   0.242
 2522SOL    HW110086   8.124   6.785   0.188
 2522SOL    HW210087   8.241   6.723   0.261
 2522SOL     MW10088   8.195   6.793   0.238
 2523SOL     OW10089   3.913   7.404   0.879
 2523SOL    HW110090   3.828   7.398   0.922
 2523SOL    HW210091   3.951   7.486   0.911
 2523SOL     MW10092   3.907   7.414   0.889
 2524SOL     OW10093   7.193   8.423   2.677
 2524SOL    HW110094   7.108   8.422   2.635
 2524SOL    HW210095   7.174   8.435   2.770
 2524SOL     MW10096   7.180   8.425   2.684
 2525SOL     OW10097   6.270   6.237   0.257
 2525SOL    HW110098   6.259   6.260   0.349
 2525SOL    HW210099   6.361   6.209   0.249
 2525SOL     MW10100   6.280   6.236   0.268
 2526SOL     OW10101   2.537   3.768   5.985
 2526SOL    HW110102   2.524   3.675   5.966
 2526SOL    HW210103   2.460   3.811   5.947
 2526SOL     MW10104   2.526   3.761   5.978
 2527SOL     OW10105   9.701   7.013   8.349
 2527SOL    HW110106   9.726   6.990   8.259
 2527SOL    HW210107   9.680   6.929   8.389
 2527SOL     MW10108   9.701   6.999   8.343
 2528SOL     OW10109   6.303   5.075   3.694
 2528SOL    HW110110   6.276   5.095   3.783
 2528SOL    HW210111   6.244   5.125   3.638
 2528SOL     MW10112   6.292   5.084   3.698
 2529SOL     OW10113  10.049   3.611   2.170
 2529SOL    HW110114  10.005   3.679   2.120
 2529SOL    HW210115   9.980   3.571   2.223
 2529SOL     MW10116  10.035   3.615   2.170
 2530SOL     OW10117   9.453   1.701   3.898
 2530SOL    HW110118   9.452   1.606   3.887
 2530SOL    HW210119   9.537   1.720   3.939
 2530SOL     MW10120   9.463   1.691   3.902
 2531SOL     OW10121   3.229   1.140   1.535
 2531SOL    HW110122   3.230   1.120   1.441
 2531SOL    HW210123   3.169   1.215   1.542
 2531SOL     MW10124   3.221   1.147   1.524
 2532SOL     OW10125   2.480   6.521   9.336
 2532SOL    HW110126   2.430   6.585   9.286
 2532SOL    HW210127   2.518   6.571   9.408
 2532SOL     MW10128   2.478   6.535   9.339
 2533SOL     OW10129   0.600   5.951   4.043
 2533SOL    HW110130   0.571   6.042   4.030
 2533SOL    HW210131   0.681   5.945   3.993
 2533SOL     MW10132   0.606   5.962   4.035
 2534SOL     OW10133   7.413   0.387   2.248
 2534SOL    HW110134   7.452   0.470   2.276
 2534SOL    HW210135   7.470   0.320   2.286
 2534SOL     MW10136   7.425   0.389   2.257
 2535SOL     OW10137   1.903   7.272   2.426
 2535SOL    HW110138   1.937   7.217   2.355
 2535SOL    HW210139   1.831   7.321   2.387
 2535SOL     MW10140   1.898   7.271   2.412
 2536SOL     OW10141   0.430   3.696   1.584
 2536SOL    HW110142   0.372   3.649   1.644
 2536SOL    HW210143   0.518   3.673   1.614
 2536SOL     MW10144   0.434   3.687   1.596
 2537SOL     OW10145   1.371   1.596  10.137
 2537SOL    HW110146   1.349   1.551  10.218
 2537SOL    HW210147   1.431   1.537  10.092
 2537SOL     MW10148   1.376   1.583  10.142
 2538SOL     OW10149   9.047   9.145   5.777
 2538SOL    HW110150   9.067   9.215   5.716
 2538SOL    HW210151   9.102   9.163   5.854
 2538SOL     MW10152   9.057   9.156   5.779
 2539SOL     OW10153   5.582   3.309   5.814
 2539SOL    HW110154   5.573   3.307   5.718
 2539SOL    HW210155   5.653   3.248   5.832
 2539SOL     MW10156   5.589   3.301   5.804
 2540SOL     OW10157   8.916   6.866   9.697
 2540SOL    HW110158   8.880   6.902   9.778
 2540SOL    HW210159   8.864   6.905   9.627
 2540SOL     MW10160   8.905   6.875   9.698
 2541SOL     OW10161   3.884   7.990   8.961
 2541SOL    HW110162   3.872   7.908   8.913
 2541SOL    HW210163   3.895   7.964   9.052
 2541SOL     MW10164   3.883   7.976   8.966
 2542SOL     OW10165   9.432   4.425   9.339
 2542SOL    HW110166   9.491   4.491   9.374
 2542SOL    HW210167   9.347   4.446   9.377
 2542SOL     MW10168   9.429   4.436   9.348
 2543SOL     OW10169   6.240   4.466   9.044
 2543SOL    HW110170   6.211   4.448   9.134
 2543SOL    HW210171   6.327   4.427   9.039
 2543SOL     MW10172   6.247   4.459   9.055
 2544SOL     OW10173   5.735   4.276   2.171
 2544SOL    HW110174   5.679   4.206   2.202
 2544SOL    HW210175   5.723   4.277   2.076
 2544SOL     MW10176   5.727   4.267   2.162
 2545SOL     OW10177   4.285   8.919   2.754
 2545SOL    HW110178   4.280   8.834   2.798
 2545SOL    HW210179   4.206   8.965   2.783
 2545SOL     MW10180   4.275   8.914   2.764
 2546SOL     OW10181   7.526   8.447   0.133
 2546SOL    HW110182   7.585   8.371   0.133
 2546SOL    HW210183   7.439   8.409   0.121
 2546SOL     MW10184   7.522   8.432   0.132
 2547SOL     OW10185   5.659   4.560   4.915
 2547SOL    HW110186   5.748   4.577   4.947
 2547SOL    HW210187   5.651   4.465   4.918
 2547SOL     MW10188   5.670   4.550   4.920
 2548SOL     OW10189   3.152   9.628   2.347
 2548SOL    HW110190   3.181   9.615   2.437
 2548SOL    HW210191   3.076   9.570   2.338
 2548SOL     MW10192   3.146   9.619   2.358
 2549SOL     OW10193   5.445   7.381   4.325
 2549SOL    HW110194   5.375   7.381   4.390
 2549SOL    HW210195   5.463   7.289   4.308
 2549SOL     MW10196   5.439   7.369   4.331
 2550SOL     OW10197   7.097   2.754   2.554
 2550SOL    HW110198   7.094   2.825   2.490
 2550SOL    HW210199   7.190   2.736   2.565
 2550SOL     MW10200   7.108   2.761   2.547
 2551SOL     OW10201   4.464   3.047   9.979
 2551SOL    HW110202   4.509   3.034  10.063
 2551SOL    HW210203   4.535   3.062   9.916
 2551SOL     MW10204   4.479   3.047   9.982
 2552SOL     OW10205   1.422   5.383   9.186
 2552SOL    HW110206   1.331   5.387   9.215
 2552SOL    HW210207   1.454   5.298   9.216
 2552SOL     MW10208   1.415   5.373   9.193
 2553SOL     OW10209   5.514   4.001   1.820
 2553SOL    HW110210   5.460   3.952   1.758
 2553SOL    HW210211   5.594   4.020   1.770
 2553SOL     MW10212   5.518   3.997   1.805
 2554SOL     OW10213   5.045   0.425   5.638
 2554SOL    HW110214   5.053   0.427   5.734
 2554SOL    HW210215   5.031   0.333   5.617
 2554SOL     MW10216   5.044   0.414   5.648
 2555SOL     OW10217   7.469   7.612   4.123
 2555SOL    HW110218   7.413   7.687   4.140
 2555SOL    HW210219   7.478   7.609   4.027
 2555SOL     MW10220   7.463   7.621   4.113
 2556SOL     OW10221   3.173   8.376   5.714
 2556SOL    HW110222   3.235   8.319   5.760
 2556SOL    HW210223   3.226   8.449   5.682
 2556SOL     MW10224   3.188   8.378   5.716
 2557SOL     OW10225   5.862   6.892  -0.012
 2557SOL    HW110226   5.902   6.809   0.015
 2557SOL    HW210227   5.794   6.908   0.053
 2557SOL     MW10228   5.859   6.883  -0.000
 2558SOL     OW10229   3.585   1.117   2.148
 2558SOL    HW110230   3.632   1.101   2.230
 2558SOL    HW210231   3.649   1.160   2.092
 2558SOL     MW10232   3.599   1.121   2.152
 2559SOL     OW10233   4.636   4.896   3.997
 2559SOL    HW110234   4.599   4.861   4.078
 2559SOL    HW210235   4.565   4.888   3.933
 2559SOL     MW10236   4.622   4.891   3.999
 2560SOL     OW10237   6.676   8.461   2.268
 2560SOL    HW110238   6.608   8.393   2.264
 2560SOL    HW210239   6.634   8.539   2.232
 2560SOL     MW10240   6.662   8.462   2.263
 2561SOL     OW10241   2.355   8.507   5.670
 2561SOL    HW110242   2.323   8.493   5.759
 2561SOL    HW210243   2.445   8.474   5.670
 2561SOL     MW10244   2.362   8.501   5.681
 2562SOL     OW10245   6.260   2.650   0.515
 2562SOL    HW110246   6.207   2.677   0.590
 2562SOL    HW210247   6.310   2.575   0.547
 2562SOL     MW10248   6.259   2.644   0.529
 2563SOL     OW10249   4.917   4.296   2.416
 2563SOL    HW110250   4.856   4.314   2.345
 2563SOL    HW210251   4.875   4.334   2.494
 2563SOL     MW10252   4.904   4.303   2.417
 2564SOL     OW10253   1.813   3.210   4.024
 2564SOL    HW110254   1.848   3.292   3.989
 2564SOL    HW210255   1.721   3.209   3.996
 2564SOL     MW10256   1.805   3.221   4.016
 2565SOL     OW10257   6.405   5.833   2.116
 2565SOL    HW110258   6.325   5.807   2.162
 2565SOL    HW210259   6.389   5.924   2.091
 2565SOL     MW10260   6.393   5.842   2.119
 2566SOL     OW10261   8.287   6.650   5.005
 2566SOL    HW110262   8.328   6.708   5.069
 2566SOL    HW210263   8.348   6.577   4.995
 2566SOL     MW10264   8.300   6.648   5.012
 2567SOL     OW10265   1.532   0.503   5.205
 2567SOL    HW110266   1.447   0.471   5.234
 2567SOL    HW210267   1.595   0.444   5.247
 2567SOL     MW10268   1.529   0.491   5.214
 2568SOL     OW10269   6.705   5.123   4.089
 2568SOL    HW110270   6.661   5.060   4.030
 2568SOL    HW210271   6.797   5.096   4.089
 2568SOL     MW10272   6.711   5.111   4.081
 2569SOL     OW10273   8.437   6.247   6.673
 2569SOL    HW110274   8.368   6.203   6.723
 2569SOL    HW210275   8.518   6.209   6.706
 2569SOL     MW10276   8.438   6.236   6.684
 2570SOL     OW10277   6.130   0.253  10.069
 2570SOL    HW110278   6.127   0.168  10.112
 2570SOL    HW210279   6.067   0.245   9.997
 2570SOL     MW10280   6.121   0.241  10.065
 2571SOL     OW10281   5.480   1.608  10.038
 2571SOL    HW110282   5.528   1.642   9.963
 2571SOL    HW210283   5.410   1.553  10.000
 2571SOL     MW10284   5.477   1.605  10.024
 2572SOL     OW10285   7.889   0.293  10.099
 2572SOL    HW110286   7.888   0.383  10.067
 2572SOL    HW210287   7.916   0.300  10.190
 2572SOL     MW10288   7.892   0.305  10.106
 2573SOL     OW10289   4.015   8.945   8.668
 2573SOL    HW110290   3.924   8.973   8.655
 2573SOL    HW210291   4.009   8.868   8.723
 2573SOL     MW10292   4.002   8.939   8.673
 2574SOL     OW10293   5.348   5.857   8.556
 2574SOL    HW110294   5.365   5.912   8.480
 2574SOL    HW210295   5.427   5.865   8.610
 2574SOL     MW10296   5.360   5.865   8.553
 2575SOL     OW10297   2.902   2.320   6.110
 2575SOL    HW110298   2.979   2.376   6.121
 2575SOL    HW210299   2.919   2.244   6.165
 2575SOL     MW10300   2.914   2.318   6.118
 2576SOL     OW10301   7.884   5.014   7.678
 2576SOL    HW110302   7.832   4.946   7.636
 2576SOL    HW210303   7.855   5.013   7.770
 2576SOL     MW10304   7.874   5.005   7.685
 2577SOL     OW10305   7.185   2.840   7.314
 2577SOL    HW110306   7.244   2.890   7.370
 2577SOL    HW210307   7.242   2.782   7.264
 2577SOL     MW10308   7.200   2.839   7.314
 2578SOL     OW10309   4.694   8.881   4.016
 2578SOL    HW110310   4.629   8.950   4.002
 2578SOL    HW210311   4.700   8.871   4.111
 2578SOL     MW10312   4.686   8.888   4.026
 2579SOL     OW10313   3.517   5.864   4.404
 2579SOL    HW110314   3.513   5.945   4.354
 2579SOL    HW210315   3.520   5.892   4.495
 2579SOL     MW10316   3.517   5.878   4.409
 2580SOL     OW10317  10.040   2.715   0.087
 2580SOL    HW110318   9.967   2.666   0.126
 2580SOL    HW210319   9.998   2.780   0.031
 2580SOL     MW10320  10.025   2.717   0.085
 2581SOL     OW10321   4.778   8.122   6.597
 2581SOL    HW110322   4.698   8.173   6.584
 2581SOL    HW210323   4.774   8.093   6.688
 2581SOL     MW10324   4.767   8.125   6.607
 2582SOL     OW10325   5.613   6.500   5.119
 2582SOL    HW110326   5.521   6.514   5.097
 2582SOL    HW210327   5.652   6.468   5.037
 2582SOL     MW10328   5.606   6.498   5.106
 2583SOL     OW10329   9.830   8.437   7.256
 2583SOL    HW110330   9.776   8.513   7.280
 2583SOL    HW210331   9.819   8.376   7.329
 2583SOL     MW10332   9.822   8.439   7.269
 2584SOL     OW10333   4.636   6.314   9.631
 2584SOL    HW110334   4.561   6.257   9.616
 2584SOL    HW210335   4.697   6.293   9.560
 2584SOL     MW10336   4.634   6.304   9.620
 2585SOL     OW10337   2.322   3.880   5.855
 2585SOL    HW110338   2.269   3.805   5.829
 2585SOL    HW210339   2.259   3.950   5.872
 2585SOL     MW10340   2.307   3.880   5.854
 2586SOL     OW10341   8.688   8.054   4.956
 2586SOL    HW110342   8.753   8.000   5.002
 2586SOL    HW210343   8.720   8.144   4.966
 2586SOL     MW10344   8.701   8.058   4.963
 2587SOL     OW10345   6.123   8.923   1.140
 2587SOL    HW110346   6.129   8.966   1.055
 2587SOL    HW210347   6.150   8.990   1.203
 2587SOL     MW10348   6.127   8.937   1.137
 2588SOL     OW10349   3.110   5.412   8.638
 2588SOL    HW110350   3.083   5.395   8.729
 2588SOL    HW210351   3.029   5.442   8.595
 2588SOL     MW10352   3.096   5.414   8.645
 2589SOL     OW10353   2.184   6.119   7.295
 2589SOL    HW110354   2.144   6.181   7.233
 2589SOL    HW210355   2.224   6.053   7.239
 2589SOL     MW10356   2.184   6.119   7.280
 2590SOL     OW10357   1.671   6.604   8.182
 2590SOL    HW110358   1.628   6.604   8.097
 2590SOL    HW210359   1.760   6.633   8.165
 2590SOL     MW10360   1.677   6.607   8.169
 2591SOL     OW10361   2.646   5.926   6.046
 2591SOL    HW110362   2.657   5.959   6.135
 2591SOL    HW210363   2.721   5.960   5.998
 2591SOL     MW10364   2.657   5.934   6.051
 2592SOL     OW10365   6.543   0.568  10.065
 2592SOL    HW110366   6.483   0.495  10.085
 2592SOL    HW210367   6.602   0.533   9.998
 2592SOL     MW10368   6.543   0.554  10.059
 2593SOL     OW10369   6.791   6.012   4.792
 2593SOL    HW110370   6.704   5.992   4.757
 2593SOL    HW210371   6.828   5.927   4.814
 2593SOL     MW10372   6.785   5.999   4.790
 2594SOL     OW10373   5.303   9.652   6.063
 2594SOL    HW110374   5.385   9.668   6.110
 2594SOL    HW210375   5.254   9.734   6.073
 2594SOL     MW10376   5.307   9.665   6.070
 2595SOL     OW10377   6.421   5.718   1.871
 2595SOL    HW110378   6.422   5.757   1.959
 2595SOL    HW210379   6.500   5.663   1.869
 2595SOL     MW10380   6.432   5.716   1.882
 2596SOL     OW10381   4.427   9.974   5.282
 2596SOL    HW110382   4.357   9.955   5.343
 2596SOL    HW210383   4.386   9.973   5.196
 2596SOL     MW10384   4.413   9.971   5.279
 2597SOL     OW10385   8.209   1.477   4.227
 2597SOL    HW110386   8.196   1.547   4.291
 2597SOL    HW210387   8.133   1.483   4.169
 2597SOL     MW10388   8.198   1.487   4.228
 2598SOL     OW10389   6.609   7.002   1.073
 2598SOL    HW110390   6.694   7.041   1.096
 2598SOL    HW210391   6.585   7.044   0.991
 2598SOL     MW10392   6.617   7.013   1.066
 2599SOL     OW10393   3.428   6.085   1.691
 2599SOL    HW110394   3.423   6.099   1.785
 2599SOL    HW210395   3.499   6.143   1.662
 2599SOL     MW10396   3.436   6.095   1.699
 2600SOL     OW10397   3.535   4.593   6.382
 2600SOL    HW110398   3.473   4.640   6.326
 2600SOL    HW210399   3.488   4.516   6.411
 2600SOL     MW10400   3.521   4.589   6.378
 2601SOL     OW10401   2.407   5.514   5.352
 2601SOL    HW110402   2.320   5.547   5.332
 2601SOL    HW210403   2.431   5.559   5.433
 2601SOL     MW10404   2.399   5.524   5.360
 2602SOL     OW10405   3.904   0.256   2.886
 2602SOL    HW110406   3.978   0.312   2.860
 2602SOL    HW210407   3.900   0.189   2.818
 2602SOL     MW10408   3.913   0.255   2.874
 2603SOL     OW10409   9.517   0.958   2.710
 2603SOL    HW110410   9.530   1.046   2.676
 2603SOL    HW210411   9.579   0.951   2.783
 2603SOL     MW10412   9.526   0.968   2.715
 2604SOL     OW10413   7.327  10.049   4.147
 2604SOL    HW110414   7.273  10.089   4.079
 2604SOL    HW210415   7.331  10.115   4.217
 2604SOL     MW10416   7.321  10.063   4.147
 2605SOL     OW10417   9.403   4.995   1.176
 2605SOL    HW110418   9.470   5.062   1.161
 2605SOL    HW210419   9.322   5.044   1.188
 2605SOL     MW10420   9.402   5.010   1.176
 2606SOL     OW10421   3.891   0.161   8.939
 2606SOL    HW110422   3.931   0.234   8.987
 2606SOL    HW210423   3.962   0.098   8.927
 2606SOL     MW10424   3.906   0.162   8.943
 2607SOL     OW10425   5.534   1.119   5.965
 2607SOL    HW110426   5.553   1.046   5.906
 2607SOL    HW210427   5.450   1.097   6.005
 2607SOL     MW10428   5.525   1.107   5.962
 2608SOL     OW10429   7.723   7.326   3.440
 2608SOL    HW110430   7.763   7.345   3.356
 2608SOL    HW210431   7.660   7.255   3.422
 2608SOL     MW10432   7.720   7.319   3.427
 2609SOL     OW10433   2.833   2.137   2.491
 2609SOL    HW110434   2.878   2.054   2.507
 2609SOL    HW210435   2.743   2.111   2.471
 2609SOL     MW10436   2.828   2.123   2.490
 2610SOL     OW10437   3.286   7.608   2.923
 2610SOL    HW110438   3.308   7.697   2.896
 2610SOL    HW210439   3.369   7.570   2.951
 2610SOL     MW10440   3.299   7.615   2.923
 2611SOL     OW10441   6.636   3.791   9.745
 2611SOL    HW110442   6.627   3.883   9.718
 2611SOL    HW210443   6.613   3.790   9.837
 2611SOL     MW10444   6.632   3.803   9.753
 2612SOL     OW10445   6.072   2.190   2.060
 2612SOL    HW110446   6.047   2.114   2.112
 2612SOL    HW210447   5.991   2.239   2.049
 2612SOL     MW10448   6.058   2.187   2.065
 2613SOL     OW10449   3.480   0.612   1.675
 2613SOL    HW110450   3.533   0.616   1.596
 2613SOL    HW210451   3.536   0.649   1.744
 2613SOL     MW10452   3.494   0.617   1.674
 2614SOL     OW10453   9.164   1.155   7.392
 2614SOL    HW110454   9.205   1.128   7.310
 2614SOL    HW210455   9.087   1.205   7.365
 2614SOL     MW10456   9.159   1.158   7.378
 2615SOL     OW10457   9.778   7.689   1.825
 2615SOL    HW110458   9.818   7.684   1.738
 2615SOL    HW210459   9.705   7.627   1.822
 2615SOL     MW10460   9.774   7.680   1.814
 2616SOL     OW10461   4.467   5.208   4.883
 2616SOL    HW110462   4.559   5.195   4.863
 2616SOL    HW210463   4.464   5.221   4.977
 2616SOL     MW10464   4.478   5.208   4.892
 2617SOL     OW10465   5.505   0.991   0.501
 2617SOL    HW110466   5.592   1.030   0.492
 2617SOL    HW210467   5.450   1.040   0.440
 2617SOL     MW10468   5.509   1.002   0.492
 2618SOL     OW10469   6.253   1.309   3.537
 2618SOL    HW110470   6.335   1.273   3.506
 2618SOL    HW210471   6.252   1.290   3.631
 2618SOL     MW10472   6.263   1.302   3.545
 2619SOL     OW10473   9.379   6.893   0.736
 2619SOL    HW110474   9.462   6.941   0.723
 2619SOL    HW210475   9.406   6.810   0.775
 2619SOL     MW10476   9.393   6.889   0.739
 2620SOL     OW10477   5.113   3.698   4.479
 2620SOL    HW110478   5.051   3.764   4.450
 2620SOL    HW210479   5.062   3.617   4.483
 2620SOL     MW10480   5.099   3.696   4.476
 2621SOL     OW10481   7.406  10.142   3.777
 2621SOL    HW110482   7.452  10.086   3.839
 2621SOL    HW210483   7.359  10.080   3.720
 2621SOL     MW10484   7.406  10.127   3.778
 2622SOL     OW10485   5.322   1.510   5.371
 2622SOL    HW110486   5.334   1.600   5.341
 2622SOL    HW210487   5.353   1.456   5.298
 2622SOL     MW10488   5.328   1.514   5.357
 2623SOL     OW10489  10.163   4.847   7.302
 2623SOL    HW110490  10.200   4.859   7.389
 2623SOL    HW210491  10.068   4.844   7.316
 2623SOL     MW10492  10.155   4.849   7.315
 2624SOL     OW10493   1.497   5.680   6.237
 2624SOL    HW110494   1.454   5.737   6.172
 2624SOL    HW210495   1.511   5.598   6.191
 2624SOL     MW10496   1.493   5.677   6.223
 2625SOL     OW10497   6.118   7.079   7.287
 2625SOL    HW110498   6.101   7.170   7.313
 2625SOL    HW210499   6.108   7.029   7.368
 2625SOL     MW10500   6.115   7.084   7.301
 2626SOL     OW10501   4.302   6.732   5.555
 2626SOL    HW110502   4.258   6.810   5.587
 2626SOL    HW210503   4.231   6.671   5.533
 2626SOL     MW10504   4.287   6.734   5.556
 2627SOL     OW10505   2.652   8.069   1.069
 2627SOL    HW110506   2.587   7.999   1.079
 2627SOL    HW210507   2.641   8.123   1.147
 2627SOL     MW10508   2.642   8.067   1.080
 2628SOL     OW10509   8.318   2.933   2.480
 2628SOL    HW110510   8.381   2.878   2.525
 2628SOL    HW210511   8.271   2.874   2.422
 2628SOL     MW10512   8.320   2.919   2.478
 2629SOL     OW10513   0.955   9.144  10.037
 2629SOL    HW110514   0.956   9.049  10.024
 2629SOL    HW210515   0.863   9.168  10.036
 2629SOL     MW10516   0.944   9.135  10.035
 2630SOL     OW10517   6.628   5.342  -0.021
 2630SOL    HW110518   6.638   5.401   0.054
 2630SOL    HW210519   6.664   5.259   0.010
 2630SOL     MW10520   6.634   5.339  -0.007
 2631SOL     OW10521   1.220   7.473   6.516
 2631SOL    HW110522   1.155   7.428   6.462
 2631SOL    HW210523   1.296   7.414   6.516
 2631SOL     MW10524   1.222   7.459   6.509
 2632SOL     OW10525   6.093   2.982   0.842
 2632SOL    HW110526   6.094   3.044   0.769
 2632SOL    HW210527   6.009   2.998   0.886
 2632SOL     MW10528   6.083   2.992   0.839
 2633SOL     OW10529   4.033   7.169   0.822
 2633SOL    HW110530   4.090   7.153   0.897
 2633SOL    HW210531   3.993   7.253   0.839
 2633SOL     MW10532   4.035   7.177   0.834
 2634SOL     OW10533   4.281   2.042   7.508
 2634SOL    HW110534   4.271   2.028   7.602
 2634SOL    HW210535   4.370   2.015   7.488
 2634SOL     MW10536   4.291   2.037   7.517
 2635SOL     OW10537   3.958   8.807   1.559
 2635SOL    HW110538   4.011   8.842   1.631
 2635SOL    HW210539   3.888   8.871   1.548
 2635SOL     MW10540   3.956   8.820   1.567
 2636SOL     OW10541   1.754   6.847   1.516
 2636SOL    HW110542   1.733   6.826   1.607
 2636SOL    HW210543   1.764   6.762   1.473
 2636SOL     MW10544   1.753   6.834   1.522
 2637SOL     OW10545   0.802   5.005   5.755
 2637SOL    HW110546   0.895   4.983   5.756
 2637SOL    HW210547   0.779   5.017   5.848
 2637SOL     MW10548   0.811   5.004   5.767
 2638SOL     OW10549   2.071   0.817   4.456
 2638SOL    HW110550   2.047   0.725   4.448
 2638SOL    HW210551   2.035   0.859   4.377
 2638SOL     MW10552   2.063   0.811   4.445
 2639SOL     OW10553   1.443   8.635   4.451
 2639SOL    HW110554   1.481   8.723   4.453
 2639SOL    HW210555   1.466   8.597   4.535
 2639SOL     MW10556   1.451   8.641   4.462
 2640SOL     OW10557   5.539   3.166   7.619
 2640SOL    HW110558   5.550   3.222   7.695
 2640SOL    HW210559   5.473   3.210   7.565
 2640SOL     MW10560   5.532   3.179   7.622
 2641SOL     OW10561   5.339   0.248   0.901
 2641SOL    HW110562   5.393   0.182   0.946
 2641SOL    HW210563   5.257   0.248   0.949
 2641SOL     MW10564   5.336   0.240   0.913
 2642SOL     OW10565   3.974   8.554   1.649
 2642SOL    HW110566   3.963   8.641   1.610
 2642SOL    HW210567   3.904   8.501   1.609
 2642SOL     MW10568   3.964   8.558   1.639
 2643SOL     OW10569   0.136   1.602   6.912
 2643SOL    HW110570   0.156   1.678   6.967
 2643SOL    HW210571   0.123   1.531   6.975
 2643SOL     MW10572   0.137   1.602   6.927
 2644SOL     OW10573   6.935   8.815   5.567
 2644SOL    HW110574   6.859   8.784   5.616
 2644SOL    HW210575   6.921   8.781   5.478
 2644SOL     MW10576   6.924   8.806   5.562
 2645SOL     OW10577   7.295   0.126   4.282
 2645SOL    HW110578   7.297   0.169   4.368
 2645SOL    HW210579   7.203   0.132   4.255
 2645SOL     MW10580   7.283   0.132   4.290
 2646SOL     OW10581   1.353   7.334   0.906
 2646SOL    HW110582   1.331   7.285   0.827
 2646SOL    HW210583   1.431   7.292   0.940
 2646SOL     MW10584   1.360   7.323   0.900
 2647SOL     OW10585   9.028   5.843  10.032
 2647SOL    HW110586   8.939   5.871  10.012
 2647SOL    HW210587   9.064   5.818   9.947
 2647SOL     MW10588   9.021   5.844  10.018
 2648SOL     OW10589   8.463   6.988   3.253
 2648SOL    HW110590   8.405   6.990   3.329
 2648SOL    HW210591   8.546   7.023   3.285
 2648SOL     MW10592   8.466   6.993   3.267
 2649SOL     OW10593   1.516   6.586   2.802
 2649SOL    HW110594   1.551   6.564   2.888
 2649SOL    HW210595   1.564   6.664   2.776
 2649SOL     MW10596   1.526   6.593   2.810
 2650SOL     OW10597   4.784   7.212   8.112
 2650SOL    HW110598   4.747   7.284   8.060
 2650SOL    HW210599   4.859   7.183   8.061
 2650SOL     MW10600   4.789   7.218   8.099
 2651SOL     OW10601   5.337   3.990   2.327
 2651SOL    HW110602   5.252   4.030   2.344
 2651SOL    HW210603   5.341   3.980   2.232
 2651SOL     MW10604   5.327   3.994   2.317
 2652SOL     OW10605   4.605   9.183   7.716
 2652SOL    HW110606   4.547   9.259   7.708
 2652SOL    HW210607   4.603   9.163   7.810
 2652SOL     MW10608   4.597   9.190   7.727
 2653SOL     OW10609   4.062   4.389   9.470
 2653SOL    HW110610   4.025   4.309   9.507
 2653SOL    HW210611   4.155   4.383   9.491
 2653SOL     MW10612   4.069   4.378   9.478
 2654SOL     OW10613   2.852   7.849   8.956
 2654SOL    HW110614   2.883   7.904   8.884
 2654SOL    HW210615   2.816   7.911   9.019
 2654SOL     MW10616   2.851   7.864   8.954
 2655SOL     OW10617   4.266   1.980   7.776
 2655SOL    HW110618   4.262   2.030   7.858
 2655SOL    HW210619   4.227   1.896   7.797
 2655SOL     MW10620   4.261   1.976   7.789
 2656SOL     OW10621   8.707   4.523  10.114
 2656SOL    HW110622   8.652   4.574  10.054
 2656SOL    HW210623   8.746   4.455  10.060
 2656SOL     MW10624   8.705   4.521  10.099
 2657SOL     OW10625   4.050   4.604   7.257
 2657SOL    HW110626   4.012   4.590   7.344
 2657SOL    HW210627   4.057   4.699   7.249
 2657SOL     MW10628   4.046   4.615   7.267
 2658SOL     OW10629   9.796   3.667   2.535
 2658SOL    HW110630   9.791   3.762   2.531
 2658SOL    HW210631   9.861   3.650   2.604
 2658SOL     MW10632   9.804   3.677   2.544
 2659SOL     OW10633   3.263   7.952   0.373
 2659SOL    HW110634   3.188   7.996   0.413
 2659SOL    HW210635   3.295   7.891   0.440
 2659SOL     MW10636   3.258   7.950   0.387
 2660SOL     OW10637   2.553   8.654   2.599
 2660SOL    HW110638   2.566   8.729   2.657
 2660SOL    HW210639   2.629   8.657   2.540
 2660SOL     MW10640   2.564   8.664   2.599
 2661SOL     OW10641   7.422   3.794   2.515
 2661SOL    HW110642   7.504   3.838   2.540
 2661SOL    HW210643   7.450   3.723   2.459
 2661SOL     MW10644   7.436   3.791   2.511
 2662SOL     OW10645  10.016   0.066   2.381
 2662SOL    HW110646  10.059   0.151   2.393
 2662SOL    HW210647  10.087   0.003   2.375
 2662SOL     MW10648  10.031   0.069   2.382
 2663SOL     OW10649   7.836   6.244   8.375
 2663SOL    HW110650   7.882   6.162   8.391
 2663SOL    HW210651   7.900   6.301   8.332
 2663SOL     MW10652   7.850   6.241   8.371
 2664SOL     OW10653   1.346   6.998   0.259
 2664SOL    HW110654   1.438   7.016   0.238
 2664SOL    HW210655   1.345   6.986   0.354
 2664SOL     MW10656   1.358   6.999   0.268
 2665SOL     OW10657   4.032   9.829   4.241
 2665SOL    HW110658   4.110   9.864   4.197
 2665SOL    HW210659   4.015   9.746   4.196
 2665SOL     MW10660   4.040   9.823   4.229
 2666SOL     OW10661   0.698   7.717   0.966
 2666SOL    HW110662   0.694   7.761   0.882
 2666SOL    HW210663   0.757   7.643   0.952
 2666SOL     MW10664   0.705   7.713   0.954
 2667SOL     OW10665   3.807   4.631   6.367
 2667SOL    HW110666   3.713   4.617   6.373
 2667SOL    HW210667   3.821   4.714   6.413
 2667SOL     MW10668   3.797   4.640   6.374
 2668SOL     OW10669   8.333   2.575   3.055
 2668SOL    HW110670   8.253   2.546   3.099
 2668SOL    HW210671   8.404   2.533   3.104
 2668SOL     MW10672   8.332   2.566   3.067
 2669SOL     OW10673   4.776   4.372   1.664
 2669SOL    HW110674   4.717   4.419   1.723
 2669SOL    HW210675   4.787   4.431   1.589
 2669SOL     MW10676   4.770   4.386   1.662
 2670SOL     OW10677   5.954   5.833   1.083
 2670SOL    HW110678   5.986   5.891   1.014
 2670SOL    HW210679   6.033   5.793   1.120
 2670SOL     MW10680   5.968   5.835   1.079
 2671SOL     OW10681   0.477   0.109   9.295
 2671SOL    HW110682   0.406   0.054   9.262
 2671SOL    HW210683   0.446   0.198   9.282
 2671SOL     MW10684   0.464   0.113   9.289
 2672SOL     OW10685   3.094   1.747   3.605
 2672SOL    HW110686   3.104   1.747   3.700
 2672SOL    HW210687   3.099   1.654   3.581
 2672SOL     MW10688   3.096   1.735   3.614
 2673SOL     OW10689   8.115   2.486   3.195
 2673SOL    HW110690   8.052   2.416   3.181
 2673SOL    HW210691   8.083   2.532   3.272
 2673SOL     MW10692   8.103   2.483   3.203
 2674SOL     OW10693   7.054   7.101   2.575
 2674SOL    HW110694   7.047   7.014   2.536
 2674SOL    HW210695   7.143   7.105   2.609
 2674SOL     MW10696   7.064   7.090   2.574
 2675SOL     OW10697   1.592   6.688   0.160
 2675SOL    HW110698   1.652   6.760   0.141
 2675SOL    HW210699   1.620   6.655   0.245
 2675SOL     MW10700   1.603   6.693   0.168
 2676SOL     OW10701   1.082   4.824   1.904
 2676SOL    HW110702   1.044   4.910   1.924
 2676SOL    HW210703   1.176   4.840   1.901
 2676SOL     MW10704   1.089   4.837   1.906
 2677SOL     OW10705   1.256   1.002   6.453
 2677SOL    HW110706   1.188   0.934   6.452
 2677SOL    HW210707   1.309   0.985   6.376
 2677SOL     MW10708   1.254   0.991   6.443
 2678SOL     OW10709   8.526   0.331   3.058
 2678SOL    HW110710   8.534   0.358   3.149
 2678SOL    HW210711   8.499   0.411   3.011
 2678SOL     MW10712   8.524   0.345   3.063
 2679SOL     OW10713   0.507   3.625   5.469
 2679SOL    HW110714   0.595   3.630   5.433
 2679SOL    HW210715   0.457   3.575   5.404
 2679SOL     MW10716   0.512   3.619   5.456
 2680SOL     OW10717   7.428   6.293   8.093
 2680SOL    HW110718   7.423   6.200   8.072
 2680SOL    HW210719   7.483   6.298   8.170
 2680SOL     MW10720   7.434   6.282   8.100
 2681SOL     OW10721   0.206   4.683   4.641
 2681SOL    HW110722   0.258   4.607   4.615
 2681SOL    HW210723   0.210   4.742   4.566
 2681SOL     MW10724   0.213   4.681   4.628
 2682SOL     OW10725   5.607   8.969   5.028
 2682SOL    HW110726   5.687   9.021   5.021
 2682SOL    HW210727   5.622   8.894   4.971
 2682SOL     MW10728   5.619   8.966   5.020
 2683SOL     OW10729   5.489   8.460   0.291
 2683SOL    HW110730   5.433   8.521   0.340
 2683SOL    HW210731   5.447   8.375   0.302
 2683SOL     MW10732   5.476   8.457   0.299
 2684SOL     OW10733   9.034   0.431   0.900
 2684SOL    HW110734   8.957   0.483   0.921
 2684SOL    HW210735   9.102   0.495   0.879
 2684SOL     MW10736   9.033   0.446   0.900
 2685SOL     OW10737  10.156   4.057   4.266
 2685SOL    HW110738  10.160   4.136   4.212
 2685SOL    HW210739  10.128   4.088   4.352
 2685SOL     MW10740  10.153   4.071   4.270
 2686SOL     OW10741   2.747   9.776   7.189
 2686SOL    HW110742   2.799   9.854   7.169
 2686SOL    HW210743   2.788   9.707   7.136
 2686SOL     MW10744   2.759   9.777   7.179
 2687SOL     OW10745   4.580   9.614   9.852
 2687SOL    HW110746   4.612   9.527   9.828
 2687SOL    HW210747   4.507   9.630   9.791
 2687SOL     MW10748   4.574   9.605   9.841
 2688SOL     OW10749   8.432   6.092   1.944
 2688SOL    HW110750   8.444   6.131   1.858
 2688SOL    HW210751   8.472   6.154   2.005
 2688SOL     MW10752   8.439   6.105   1.941
 2689SOL     OW10753   7.251   4.106   3.556
 2689SOL    HW110754   7.276   4.197   3.571
 2689SOL    HW210755   7.180   4.111   3.492
 2689SOL     MW10756   7.245   4.119   3.550
 2690SOL     OW10757   2.794   4.408   0.917
 2690SOL    HW110758   2.787   4.381   1.009
 2690SOL    HW210759   2.722   4.471   0.906
 2690SOL     MW10760   2.784   4.413   0.927
 2691SOL     OW10761   1.140   0.289   0.060
 2691SOL    HW110762   1.166   0.305   0.151
 2691SOL    HW210763   1.099   0.371   0.032
 2691SOL     MW10764   1.138   0.301   0.068
 2692SOL     OW10765   6.676   9.240   0.035
 2692SOL    HW110766   6.603   9.229   0.096
 2692SOL    HW210767   6.753   9.247   0.090
 2692SOL     MW10768   6.676   9.240   0.050
 2693SOL     OW10769   1.920   4.128   9.401
 2693SOL    HW110770   1.884   4.215   9.386
 2693SOL    HW210771   1.917   4.086   9.316
 2693SOL     MW10772   1.915   4.134   9.388
 2694SOL     OW10773   0.841   7.966   2.415
 2694SOL    HW110774   0.850   8.035   2.481
 2694SOL    HW210775   0.748   7.967   2.392
 2694SOL     MW10776   0.830   7.975   2.420
 2695SOL     OW10777   0.583   5.100   8.825
 2695SOL    HW110778   0.506   5.115   8.878
 2695SOL    HW210779   0.653   5.081   8.888
 2695SOL     MW10780   0.582   5.100   8.839
 2696SOL     OW10781   7.560   3.891   6.372
 2696SOL    HW110782   7.511   3.935   6.442
 2696SOL    HW210783   7.558   3.798   6.396
 2696SOL     MW10784   7.553   3.884   6.384
 2697SOL     OW10785   0.732   8.578   2.667
 2697SOL    HW110786   0.704   8.635   2.739
 2697SOL    HW210787   0.815   8.615   2.638
 2697SOL     MW10788   0.739   8.590   2.673
 2698SOL     OW10789   4.257   3.799   1.189
 2698SOL    HW110790   4.234   3.714   1.229
 2698SOL    HW210791   4.279   3.855   1.264
 2698SOL     MW10792   4.257   3.795   1.204
 2699SOL     OW10793   6.817   0.884   8.205
 2699SOL    HW110794   6.772   0.961   8.239
 2699SOL    HW210795   6.813   0.894   8.110
 2699SOL     MW10796   6.811   0.895   8.197
 2700SOL     OW10797   7.926   4.695   3.180
 2700SOL    HW110798   7.985   4.728   3.112
 2700SOL    HW210799   7.982   4.644   3.238
 2700SOL     MW10800   7.940   4.693   3.179
 2701SOL     OW10801   3.490   5.858   1.037
 2701SOL    HW110802   3.582   5.844   1.061
 2701SOL    HW210803   3.442   5.850   1.120
 2701SOL     MW10804   3.495   5.855   1.051
 2702SOL     OW10805   6.222   9.351   5.150
 2702SOL    HW110806   6.202   9.440   5.121
 2702SOL    HW210807   6.309   9.356   5.189
 2702SOL     MW10808   6.230   9.363   5.152
 2703SOL     OW10809  10.119   7.608   7.948
 2703SOL    HW110810  10.159   7.660   7.878
 2703SOL    HW210811  10.132   7.661   8.027
 2703SOL     MW10812  10.126   7.622   7.949
 2704SOL     OW10813   8.414   4.456   2.973
 2704SOL    HW110814   8.381   4.511   3.044
 2704SOL    HW210815   8.361   4.481   2.897
 2704SOL     MW10816   8.403   4.466   2.972
 2705SOL     OW10817   6.600   6.347   0.999
 2705SOL    HW110818   6.644   6.286   1.058
 2705SOL    HW210819   6.628   6.321   0.912
 2705SOL     MW10820   6.609   6.336   0.995
 2706SOL     OW10821   0.362   7.492   4.952
 2706SOL    HW110822   0.287   7.534   4.910
 2706SOL    HW210823   0.359   7.401   4.921
 2706SOL     MW10824   0.352   7.486   4.942
 2707SOL     OW10825   8.041   3.360   5.375
 2707SOL    HW110826   8.136   3.367   5.376
 2707SOL    HW210827   8.012   3.434   5.322
 2707SOL     MW10828   8.049   3.370   5.369
 2708SOL     OW10829   8.276   4.311   6.367
 2708SOL    HW110830   8.339   4.302   6.295
 2708SOL    HW210831   8.202   4.255   6.341
 2708SOL     MW10832   8.275   4.302   6.354
 2709SOL     OW10833   7.858   9.202   6.201
 2709SOL    HW110834   7.893   9.175   6.116
 2709SOL    HW210835   7.869   9.297   6.202
 2709SOL     MW10836   7.864   9.211   6.190
 2710SOL     OW10837   8.292   9.771   1.197
 2710SOL    HW110838   8.224   9.793   1.261
 2710SOL    HW210839   8.339   9.698   1.237
 2710SOL     MW10840   8.289   9.765   1.211
 2711SOL     OW10841   0.091   3.939   2.975
 2711SOL    HW110842   0.035   4.005   3.015
 2711SOL    HW210843   0.099   3.967   2.884
 2711SOL     MW10844   0.085   3.951   2.968
 2712SOL     OW10845   5.560   5.902   8.724
 2712SOL    HW110846   5.604   5.836   8.778
 2712SOL    HW210847   5.631   5.949   8.680
 2712SOL     MW10848   5.575   5.899   8.725
 2713SOL     OW10849   7.824   6.655   5.155
 2713SOL    HW110850   7.892   6.655   5.087
 2713SOL    HW210851   7.748   6.695   5.112
 2713SOL     MW10852   7.823   6.660   5.141
 2714SOL     OW10853   4.460   7.123   6.547
 2714SOL    HW110854   4.441   7.060   6.478
 2714SOL    HW210855   4.529   7.178   6.510
 2714SOL     MW10856   4.467   7.122   6.534
 2715SOL     OW10857   4.291   7.432   1.438
 2715SOL    HW110858   4.286   7.495   1.366
 2715SOL    HW210859   4.204   7.391   1.439
 2715SOL     MW10860   4.279   7.434   1.429
 2716SOL     OW10861   1.978   5.383   7.701
 2716SOL    HW110862   1.915   5.367   7.771
 2716SOL    HW210863   2.011   5.471   7.719
 2716SOL     MW10864   1.974   5.393   7.712
 2717SOL     OW10865   6.836   9.614   9.350
 2717SOL    HW110866   6.827   9.702   9.385
 2717SOL    HW210867   6.765   9.607   9.285
 2717SOL     MW10868   6.826   9.624   9.346
 2718SOL     OW10869   3.379  10.148   1.366
 2718SOL    HW110870   3.291  10.125   1.337
 2718SOL    HW210871   3.437  10.112   1.298
 2718SOL     MW10872   3.375  10.140   1.354
 2719SOL     OW10873   9.328   6.520   4.562
 2719SOL    HW110874   9.423   6.529   4.551
 2719SOL    HW210875   9.292   6.605   4.535
 2719SOL     MW10876   9.336   6.532   4.557
 2720SOL     OW10877   4.201   4.365   7.253
 2720SOL    HW110878   4.190   4.460   7.263
 2720SOL    HW210879   4.126   4.337   7.202
 2720SOL     MW10880   4.190   4.374   7.248
 2721SOL     OW10881   2.509   2.916   9.105
 2721SOL    HW110882   2.480   2.853   9.039
 2721SOL    HW210883   2.499   2.869   9.188
 2721SOL     MW10884   2.504   2.902   9.107
 2722SOL     OW10885   2.854   5.009   5.894
 2722SOL    HW110886   2.773   5.055   5.917
 2722SOL    HW210887   2.887   5.054   5.817
 2722SOL     MW10888   2.848   5.020   5.887
 2723SOL     OW10889   2.459   4.557   8.463
 2723SOL    HW110890   2.477   4.648   8.442
 2723SOL    HW210891   2.542   4.522   8.495
 2723SOL     MW10892   2.472   4.564   8.465
 2724SOL     OW10893   5.812   3.233   8.816
 2724SOL    HW110894   5.826   3.229   8.721
 2724SOL    HW210895   5.760   3.156   8.836
 2724SOL     MW10896   5.807   3.223   8.806
 2725SOL     OW10897   8.061   4.169   6.272
 2725SOL    HW110898   8.025   4.081   6.270
 2725SOL    HW210899   7.985   4.226   6.267
 2725SOL     MW10900   8.047   4.165   6.271
 2726SOL     OW10901   3.500   8.064   7.923
 2726SOL    HW110902   3.461   7.991   7.970
 2726SOL    HW210903   3.591   8.039   7.910
 2726SOL     MW10904   3.507   8.052   7.927
 2727SOL     OW10905   0.385   6.701   9.032
 2727SOL    HW110906   0.433   6.671   9.109
 2727SOL    HW210907   0.323   6.630   9.014
 2727SOL     MW10908   0.383   6.688   9.039
 2728SOL     OW10909   3.417   6.563   8.998
 2728SOL    HW110910   3.493   6.564   8.939
 2728SOL    HW210911   3.435   6.633   9.060
 2728SOL     MW10912   3.429   6.572   8.998
 2729SOL     OW10913   8.749   2.252   9.009
 2729SOL    HW110914   8.803   2.246   8.930
 2729SOL    HW210915   8.804   2.299   9.072
 2729SOL     MW10916   8.763   2.257   9.007
 2730SOL     OW10917   4.485   5.566   0.681
 2730SOL    HW110918   4.510   5.525   0.598
 2730SOL    HW210919   4.396   5.598   0.665
 2730SOL     MW10920   4.477   5.565   0.668
 2731SOL     OW10921   2.624   8.431   5.656
 2731SOL    HW110922   2.678   8.358   5.625
 2731SOL    HW210923   2.682   8.481   5.713
 2731SOL     MW10924   2.638   8.428   5.659
 2732SOL     OW10925   6.874   2.658   2.679
 2732SOL    HW110926   6.818   2.625   2.609
 2732SOL    HW210927   6.953   2.689   2.635
 2732SOL     MW10928   6.877   2.658   2.665
 2733SOL     OW10929   8.214   3.235   6.481
 2733SOL    HW110930   8.191   3.299   6.548
 2733SOL    HW210931   8.134   3.224   6.430
 2733SOL     MW10932   8.201   3.242   6.483
 2734SOL     OW10933   1.896   0.149   3.535
 2734SOL    HW110934   1.832   0.173   3.602
 2734SOL    HW210935   1.965   0.103   3.583
 2734SOL     MW10936   1.897   0.146   3.550
 2735SOL     OW10937   7.540   7.131   3.375
 2735SOL    HW110938   7.499   7.127   3.289
 2735SOL    HW210939   7.468   7.142   3.436
 2735SOL     MW10940   7.526   7.132   3.372
 2736SOL     OW10941   9.899   7.676   1.579
 2736SOL    HW110942   9.869   7.641   1.495
 2736SOL    HW210943   9.919   7.768   1.561
 2736SOL     MW10944   9.897   7.684   1.566
 2737SOL     OW10945   3.453   3.807   2.323
 2737SOL    HW110946   3.407   3.730   2.357
 2737SOL    HW210947   3.544   3.793   2.350
 2737SOL     MW10948   3.459   3.795   2.331
 2738SOL     OW10949   9.569   7.434   2.923
 2738SOL    HW110950   9.656   7.473   2.931
 2738SOL    HW210951   9.559   7.380   3.001
 2738SOL     MW10952   9.578   7.432   2.934
 2739SOL     OW10953   3.271   5.329   7.525
 2739SOL    HW110954   3.179   5.352   7.521
 2739SOL    HW210955   3.300   5.327   7.433
 2739SOL     MW10956   3.263   5.331   7.513
 2740SOL     OW10957   0.860   1.635   2.188
 2740SOL    HW110958   0.856   1.566   2.255
 2740SOL    HW210959   0.808   1.706   2.224
 2740SOL     MW10960   0.853   1.635   2.201
 2741SOL     OW10961   3.787   2.084   4.831
 2741SOL    HW110962   3.863   2.057   4.779
 2741SOL    HW210963   3.715   2.028   4.801
 2741SOL     MW10964   3.787   2.074   4.820
 2742SOL     OW10965   9.098   9.624   5.648
 2742SOL    HW110966   9.116   9.686   5.577
 2742SOL    HW210967   9.082   9.679   5.724
 2742SOL     MW10968   9.098   9.639   5.648
 2743SOL     OW10969   7.491   8.996   7.373
 2743SOL    HW110970   7.519   9.059   7.440
 2743SOL    HW210971   7.424   9.042   7.322
 2743SOL     MW10972   7.486   9.010   7.375
 2744SOL     OW10973   5.365   0.136   0.652
 2744SOL    HW110974   5.296   0.168   0.593
 2744SOL    HW210975   5.359   0.193   0.729
 2744SOL     MW10976   5.355   0.147   0.654
 2745SOL     OW10977   7.706   6.464   3.335
 2745SOL    HW110978   7.668   6.534   3.388
 2745SOL    HW210979   7.680   6.383   3.380
 2745SOL     MW10980   7.698   6.462   3.348
 2746SOL     OW10981   6.944   1.474   0.814
 2746SOL    HW110982   6.856   1.438   0.819
 2746SOL    HW210983   6.989   1.418   0.751
 2746SOL     MW10984   6.939   1.462   0.807
 2747SOL     OW10985   3.979   1.239   1.130
 2747SOL    HW110986   3.965   1.227   1.036
 2747SOL    HW210987   3.959   1.331   1.146
 2747SOL     MW10988   3.975   1.249   1.120
 2748SOL     OW10989   5.212   2.309   5.998
 2748SOL    HW110990   5.245   2.232   6.044
 2748SOL    HW210991   5.127   2.326   6.039
 2748SOL     MW10992   5.206   2.302   6.009
 2749SOL     OW10993   6.334   3.009   5.362
 2749SOL    HW110994   6.342   3.023   5.267
 2749SOL    HW210995   6.424   2.995   5.392
 2749SOL     MW10996   6.346   3.009   5.353
 2750SOL     OW10997   9.649   8.680   7.584
 2750SOL    HW110998   9.691   8.754   7.629
 2750SOL    HW210999   9.680   8.687   7.493
 2750SOL     MW11000   9.659   8.691   7.578
 2751SOL     OW11001   3.746   3.674   3.287
 2751SOL    HW111002   3.726   3.675   3.194
 2751SOL    HW211003   3.722   3.585   3.316
 2751SOL     MW11004   3.741   3.662   3.279
 2752SOL     OW11005   4.923   7.550   2.243
 2752SOL    HW111006   4.989   7.494   2.201
 2752SOL    HW211007   4.949   7.551   2.336
 2752SOL     MW11008   4.935   7.543   2.250
 2753SOL     OW11009   4.874   0.039   3.706
 2753SOL    HW111010   4.895   0.038   3.800
 2753SOL    HW211011   4.905   0.124   3.675
 2753SOL     MW11012   4.881   0.049   3.714
 2754SOL     OW11013   5.090   3.128   0.555
 2754SOL    HW111014   5.164   3.080   0.591
 2754SOL    HW211015   5.061   3.185   0.626
 2754SOL     MW11016   5.096   3.129   0.569
 2755SOL     OW11017   3.871   1.182   3.112
 2755SOL    HW111018   3.937   1.137   3.059
 2755SOL    HW211019   3.788   1.141   3.088
 2755SOL     MW11020   3.869   1.171   3.102
 2756SOL     OW11021   2.462   5.142   0.288
 2756SOL    HW111022   2.377   5.105   0.262
 2756SOL    HW211023   2.483   5.203   0.217
 2756SOL     MW11024   2.454   5.145   0.275
 2757SOL     OW11025   0.928  10.110   9.128
 2757SOL    HW111026   0.858  10.124   9.191
 2757SOL    HW211027   0.888  10.060   9.058
 2757SOL     MW11028   0.914  10.106   9.127
 2758SOL     OW11029   7.636  10.091   0.019
 2758SOL    HW111030   7.558  10.099  -0.036
 2758SOL    HW211031   7.606  10.118   0.106
 2758SOL     MW11032   7.622  10.096   0.023
 2759SOL     OW11033   1.886   3.811   6.445
 2759SOL    HW111034   1.981   3.805   6.432
 2759SOL    HW211035   1.852   3.726   6.419
 2759SOL     MW11036   1.894   3.800   6.440
 2760SOL     OW11037   2.326   6.854   7.996
 2760SOL    HW111038   2.321   6.931   8.053
 2760SOL    HW211039   2.247   6.804   8.017
 2760SOL     MW11040   2.315   6.857   8.006
 2761SOL     OW11041   6.761   1.020   9.716
 2761SOL    HW111042   6.724   1.050   9.799
 2761SOL    HW211043   6.697   1.047   9.650
 2761SOL     MW11044   6.748   1.027   9.718
 2762SOL     OW11045   7.526   6.224   1.492
 2762SOL    HW111046   7.540   6.281   1.416
 2762SOL    HW211047   7.493   6.142   1.455
 2762SOL     MW11048   7.523   6.221   1.478
 2763SOL     OW11049   2.754   5.271   5.068
 2763SOL    HW111050   2.713   5.227   4.994
 2763SOL    HW211051   2.682   5.291   5.127
 2763SOL     MW11052   2.739   5.268   5.066
 2764SOL     OW11053   2.169   9.445   4.989
 2764SOL    HW111054   2.215   9.455   4.906
 2764SOL    HW211055   2.238   9.450   5.055
 2764SOL     MW11056   2.184   9.447   4.987
 2765SOL     OW11057   1.783   6.341   2.312
 2765SOL    HW111058   1.783   6.245   2.302
 2765SOL    HW211059   1.714   6.358   2.376
 2765SOL     MW11060   1.774   6.331   2.319
 2766SOL     OW11061   0.290   1.685   2.888
 2766SOL    HW111062   0.334   1.656   2.968
 2766SOL    HW211063   0.270   1.777   2.904
 2766SOL     MW11064   0.293   1.693   2.900
 2767SOL     OW11065   5.103   5.994   3.942
 2767SOL    HW111066   5.035   5.948   3.993
 2767SOL    HW211067   5.117   6.075   3.990
 2767SOL     MW11068   5.096   5.998   3.955
 2768SOL     OW11069   9.761   6.974   9.300
 2768SOL    HW111070   9.672   6.963   9.266
 2768SOL    HW211071   9.813   6.997   9.223
 2768SOL     MW11072   9.756   6.976   9.285
 2769SOL     OW11073   8.567   7.365   9.156
 2769SOL    HW111074   8.570   7.395   9.247
 2769SOL    HW211075   8.657   7.374   9.125
 2769SOL     MW11076   8.579   7.370   9.164
 2770SOL     OW11077   7.045   2.669   7.478
 2770SOL    HW111078   7.011   2.600   7.420
 2770SOL    HW211079   7.091   2.729   7.419
 2770SOL     MW11080   7.046   2.668   7.463
 2771SOL     OW11081   1.018   3.586   2.019
 2771SOL    HW111082   1.012   3.524   2.091
 2771SOL    HW211083   0.964   3.548   1.949
 2771SOL     MW11084   1.010   3.573   2.019
 2772SOL     OW11085   3.593   6.541   3.200
 2772SOL    HW111086   3.606   6.634   3.217
 2772SOL    HW211087   3.645   6.496   3.266
 2772SOL     MW11088   3.601   6.547   3.211
 2773SOL     OW11089   2.045   7.115   2.247
 2773SOL    HW111090   2.000   7.077   2.171
 2773SOL    HW211091   2.070   7.040   2.300
 2773SOL     MW11092   2.042   7.101   2.244
 2774SOL     OW11093   5.923   0.221   4.985
 2774SOL    HW111094   5.995   0.224   4.922
 2774SOL    HW211095   5.943   0.291   5.047
 2774SOL     MW11096   5.935   0.231   4.985
 2775SOL     OW11097   4.056   5.277  10.096
 2775SOL    HW111098   4.027   5.329  10.022
 2775SOL    HW211099   4.040   5.186  10.070
 2775SOL     MW11100   4.051   5.272  10.083
 2776SOL     OW11101   4.673  10.041   3.962
 2776SOL    HW111102   4.666  10.030   3.867
 2776SOL    HW211103   4.752  10.093   3.975
 2776SOL     MW11104   4.682  10.046   3.952
 2777SOL     OW11105   0.329   4.799   0.729
 2777SOL    HW111106   0.356   4.826   0.642
 2777SOL    HW211107   0.407   4.813   0.783
 2777SOL     MW11108   0.342   4.805   0.725
 2778SOL     OW11109   4.372   5.783   1.016
 2778SOL    HW111110   4.406   5.698   0.989
 2778SOL    HW211111   4.380   5.784   1.111
 2778SOL     MW11112   4.377   5.772   1.024
 2779SOL     OW11113   0.552   8.849   6.948
 2779SOL    HW111114   0.553   8.934   6.992
 2779SOL    HW211115   0.617   8.796   6.995
 2779SOL     MW11116   0.561   8.853   6.960
 2780SOL     OW11117   3.516   8.939   8.524
 2780SOL    HW111118   3.498   8.846   8.512
 2780SOL    HW211119   3.442   8.984   8.483
 2780SOL     MW11120   3.504   8.933   8.517
 2781SOL     OW11121   4.231   3.959   1.431
 2781SOL    HW111122   4.194   3.883   1.475
 2781SOL    HW211123   4.261   4.016   1.502
 2781SOL     MW11124   4.230   3.957   1.446
 2782SOL     OW11125   7.066   3.677   9.195
 2782SOL    HW111126   7.091   3.594   9.152
 2782SOL    HW211127   6.999   3.652   9.258
 2782SOL     MW11128   7.061   3.663   9.198
 2783SOL     OW11129   6.912   5.588   7.086
 2783SOL    HW111130   6.877   5.619   7.002
 2783SOL    HW211131   6.959   5.508   7.065
 2783SOL     MW11132   6.913   5.582   7.073
 2784SOL     OW11133   2.875   2.485   3.319
 2784SOL    HW111134   2.945   2.420   3.309
 2784SOL    HW211135   2.794   2.434   3.308
 2784SOL     MW11136   2.873   2.470   3.316
 2785SOL     OW11137   5.171   1.785   9.282
 2785SOL    HW111138   5.205   1.867   9.247
 2785SOL    HW211139   5.248   1.740   9.317
 2785SOL     MW11140   5.185   1.790   9.282
 2786SOL     OW11141   5.762   3.860   7.882
 2786SOL    HW111142   5.793   3.942   7.845
 2786SOL    HW211143   5.678   3.882   7.923
 2786SOL     MW11144   5.755   3.873   7.883
 2787SOL     OW11145   4.676   2.704   5.322
 2787SOL    HW111146   4.671   2.749   5.406
 2787SOL    HW211147   4.743   2.637   5.334
 2787SOL     MW11148   4.684   2.701   5.334
 2788SOL     OW11149   4.799   3.253   9.382
 2788SOL    HW111150   4.828   3.164   9.401
 2788SOL    HW211151   4.740   3.244   9.308
 2788SOL     MW11152   4.795   3.241   9.375
 2789SOL     OW11153   6.241   5.620   8.463
 2789SOL    HW111154   6.241   5.628   8.558
 2789SOL    HW211155   6.330   5.591   8.441
 2789SOL     MW11156   6.253   5.617   8.472
 2790SOL     OW11157   9.958   6.363   1.830
 2790SOL    HW111158   9.916   6.414   1.761
 2790SOL    HW211159  10.036   6.413   1.852
 2790SOL     MW11160   9.962   6.376   1.824
 2791SOL     OW11161   0.100   0.307   6.258
 2791SOL    HW111162   0.057   0.304   6.173
 2791SOL    HW211163   0.155   0.229   6.260
 2791SOL     MW11164   0.102   0.297   6.248
 2792SOL     OW11165   0.304   8.754   6.878
 2792SOL    HW111166   0.317   8.729   6.787
 2792SOL    HW211167   0.389   8.786   6.907
 2792SOL     MW11168   0.316   8.755   6.870
 2793SOL     OW11169   3.082   4.306   1.140
 2793SOL    HW111170   3.156   4.250   1.163
 2793SOL    HW211171   3.057   4.278   1.052
 2793SOL     MW11172   3.088   4.295   1.132
 2794SOL     OW11173   2.159   8.567   5.493
 2794SOL    HW111174   2.231   8.551   5.554
 2794SOL    HW211175   2.106   8.488   5.495
 2794SOL     MW11176   2.162   8.555   5.501
 2795SOL     OW11177   1.557   2.609   5.562
 2795SOL    HW111178   1.622   2.539   5.559
 2795SOL    HW211179   1.607   2.686   5.593
 2795SOL     MW11180   1.572   2.610   5.565
 2796SOL     OW11181   8.348   7.529   3.941
 2796SOL    HW111182   8.318   7.612   3.903
 2796SOL    HW211183   8.269   7.476   3.949
 2796SOL     MW11184   8.334   7.533   3.937
 2797SOL     OW11185   3.207   4.773   5.815
 2797SOL    HW111186   3.285   4.785   5.870
 2797SOL    HW211187   3.221   4.689   5.771
 2797SOL     MW11188   3.219   4.764   5.817
 2798SOL     OW11189   6.119   4.271   0.774
 2798SOL    HW111190   6.088   4.263   0.684
 2798SOL    HW211191   6.210   4.300   0.766
 2798SOL     MW11192   6.127   4.274   0.762
 2799SOL     OW11193   7.680   0.569   0.651
 2799SOL    HW111194   7.591   0.579   0.685
 2799SOL    HW211195   7.677   0.608   0.564
 2799SOL     MW11196   7.668   0.575   0.644
 2800SOL     OW11197   2.964   1.068   6.358
 2800SOL    HW111198   3.034   1.007   6.382
 2800SOL    HW211199   2.925   1.028   6.280
 2800SOL     MW11200   2.968   1.055   6.351
 2801SOL     OW11201   6.958   9.341   4.687
 2801SOL    HW111202   6.875   9.294   4.686
 2801SOL    HW211203   7.008   9.303   4.614
 2801SOL     MW11204   6.954   9.330   4.677
 2802SOL     OW11205   4.974   7.599   0.049
 2802SOL    HW111206   4.990   7.507   0.069
 2802SOL    HW211207   4.927   7.597  -0.035
 2802SOL     MW11208   4.970   7.587   0.041
 2803SOL     OW11209   9.956   9.494   0.592
 2803SOL    HW111210   9.939   9.413   0.639
 2803SOL    HW211211   9.879   9.506   0.536
 2803SOL     MW11212   9.944   9.485   0.591
 2804SOL     OW11213   0.663   6.028   0.125
 2804SOL    HW111214   0.576   5.996   0.101
 2804SOL    HW211215   0.724   5.967   0.084
 2804SOL     MW11216   0.660   6.016   0.117
 2805SOL     OW11217   8.274   6.585   2.705
 2805SOL    HW111218   8.312   6.505   2.667
 2805SOL    HW211219   8.204   6.553   2.762
 2805SOL     MW11220   8.270   6.571   2.708
 2806SOL     OW11221   1.199   1.591   3.627
 2806SOL    HW111222   1.149   1.541   3.562
 2806SOL    HW211223   1.261   1.642   3.575
 2806SOL     MW11224   1.201   1.591   3.612
 2807SOL     OW11225  10.131   4.571   3.341
 2807SOL    HW111226  10.153   4.515   3.267
 2807SOL    HW211227  10.095   4.650   3.301
 2807SOL     MW11228  10.129   4.574   3.327
 2808SOL     OW11229   7.239   7.976   2.094
 2808SOL    HW111230   7.177   7.914   2.056
 2808SOL    HW211231   7.212   7.982   2.186
 2808SOL     MW11232   7.228   7.968   2.101
 2809SOL     OW11233   5.227   8.328   3.566
 2809SOL    HW111234   5.281   8.283   3.631
 2809SOL    HW211235   5.137   8.311   3.594
 2809SOL     MW11236   5.222   8.320   3.578
 2810SOL     OW11237   5.727   8.317   5.103
 2810SOL    HW111238   5.758   8.311   5.193
 2810SOL    HW211239   5.806   8.332   5.051
 2810SOL     MW11240   5.741   8.318   5.108
 2811SOL     OW11241   5.521   8.864   9.370
 2811SOL    HW111242   5.465   8.823   9.303
 2811SOL    HW211243   5.602   8.885   9.324
 2811SOL     MW11244   5.524   8.861   9.356
 2812SOL     OW11245   3.507   0.333   2.662
 2812SOL    HW111246   3.514   0.319   2.568
 2812SOL    HW211247   3.413   0.348   2.677
 2812SOL     MW11248   3.496   0.333   2.652
 2813SOL     OW11249   8.654   5.518   1.927
 2813SOL    HW111250   8.624   5.497   1.838
 2813SOL    HW211251   8.576   5.553   1.970
 2813SOL     MW11252   8.640   5.520   1.921
 2814SOL     OW11253   9.942   5.086   6.544
 2814SOL    HW111254   9.909   5.175   6.556
 2814SOL    HW211255   9.898   5.054   6.465
 2814SOL     MW11256   9.932   5.093   6.536
 2815SOL     OW11257   1.458   4.659   2.615
 2815SOL    HW111258   1.397   4.629   2.547
 2815SOL    HW211259   1.458   4.589   2.680
 2815SOL     MW11260   1.450   4.646   2.614
 2816SOL     OW11261   9.482   9.075   9.514
 2816SOL    HW111262   9.401   9.098   9.560
 2816SOL    HW211263   9.523   9.159   9.492
 2816SOL     MW11264   9.477   9.088   9.517
 2817SOL     OW11265   0.340   6.262   8.134
 2817SOL    HW111266   0.321   6.185   8.080
 2817SOL    HW211267   0.313   6.236   8.222
 2817SOL     MW11268   0.334   6.249   8.138
 2818SOL     OW11269   2.555   0.056   5.833
 2818SOL    HW111270   2.506   0.062   5.751
 2818SOL    HW211271   2.489   0.028   5.897
 2818SOL     MW11272   2.540   0.053   5.831
 2819SOL     OW11273   4.612   1.457   9.607
 2819SOL    HW111274   4.680   1.437   9.542
 2819SOL    HW211275   4.652   1.523   9.664
 2819SOL     MW11276   4.626   1.463   9.606
 2820SOL     OW11277   6.992   3.942   0.743
 2820SOL    HW111278   6.981   3.848   0.733
 2820SOL    HW211279   7.016   3.954   0.835
 2820SOL     MW11280   6.993   3.932   0.754
 2821SOL     OW11281   6.174   9.977   3.365
 2821SOL    HW111282   6.165  10.060   3.318
 2821SOL    HW211283   6.223   9.998   3.444
 2821SOL     MW11284   6.179   9.990   3.369
 2822SOL     OW11285   9.365   6.777   3.867
 2822SOL    HW111286   9.390   6.815   3.951
 2822SOL    HW211287   9.309   6.702   3.891
 2822SOL     MW11288   9.361   6.772   3.881
 2823SOL     OW11289   5.312   5.359   2.118
 2823SOL    HW111290   5.304   5.375   2.212
 2823SOL    HW211291   5.259   5.428   2.078
 2823SOL     MW11292   5.304   5.370   2.125
 2824SOL     OW11293   5.256   7.021   0.729
 2824SOL    HW111294   5.261   7.098   0.786
 2824SOL    HW211295   5.168   7.024   0.692
 2824SOL     MW11296   5.246   7.031   0.732
 2825SOL     OW11297  10.170   2.798   3.283
 2825SOL    HW111298  10.214   2.846   3.212
 2825SOL    HW211299  10.081   2.833   3.284
 2825SOL     MW11300  10.164   2.809   3.274
 2826SOL     OW11301   5.916   9.023   5.529
 2826SOL    HW111302   5.940   9.062   5.445
 2826SOL    HW211303   5.951   9.083   5.595
 2826SOL     MW11304   5.924   9.035   5.527
 2827SOL     OW11305   5.832   8.312   5.358
 2827SOL    HW111306   5.928   8.309   5.353
 2827SOL    HW211307   5.813   8.405   5.373
 2827SOL     MW11308   5.842   8.324   5.359
 2828SOL     OW11309   4.252   7.622   8.145
 2828SOL    HW111310   4.168   7.581   8.125
 2828SOL    HW211311   4.289   7.567   8.215
 2828SOL     MW11312   4.246   7.610   8.151
 2829SOL     OW11313   6.548   8.678   2.161
 2829SOL    HW111314   6.516   8.756   2.207
 2829SOL    HW211315   6.550   8.703   2.069
 2829SOL     MW11316   6.544   8.692   2.155
 2830SOL     OW11317   0.216   4.842   4.415
 2830SOL    HW111318   0.209   4.936   4.432
 2830SOL    HW211319   0.280   4.835   4.344
 2830SOL     MW11320   0.224   4.853   4.408
 2831SOL     OW11321   5.104   1.123   4.193
 2831SOL    HW111322   5.040   1.147   4.126
 2831SOL    HW211323   5.188   1.130   4.149
 2831SOL     MW11324   5.106   1.127   4.178
 2832SOL     OW11325   6.972   5.037   1.776
 2832SOL    HW111326   6.953   5.013   1.867
 2832SOL    HW211327   7.047   5.097   1.783
 2832SOL     MW11328   6.979   5.041   1.789
 2833SOL     OW11329  10.049  10.089   6.986
 2833SOL    HW111330  10.128  10.083   7.041
 2833SOL    HW211331   9.977  10.080   7.048
 2833SOL     MW11332  10.050  10.087   7.001
 2834SOL     OW11333   2.181   7.804   7.529
 2834SOL    HW111334   2.174   7.805   7.625
 2834SOL    HW211335   2.264   7.759   7.512
 2834SOL     MW11336   2.191   7.799   7.539
 2835SOL     OW11337   9.242   4.564   9.505
 2835SOL    HW111338   9.192   4.520   9.573
 2835SOL    HW211339   9.180   4.625   9.465
 2835SOL     MW11340   9.228   4.567   9.509
 2836SOL     OW11341   5.396   1.658   9.380
 2836SOL    HW111342   5.417   1.572   9.343
 2836SOL    HW211343   5.408   1.648   9.474
 2836SOL     MW11344   5.400   1.646   9.387
 2837SOL     OW11345   4.598   8.710   4.975
 2837SOL    HW111346   4.633   8.780   4.921
 2837SOL    HW211347   4.580   8.639   4.914
 2837SOL     MW11348   4.600   8.710   4.960
 2838SOL     OW11349   0.093   2.602   8.797
 2838SOL    HW111350   0.075   2.673   8.736
 2838SOL    HW211351   0.009   2.559   8.811
 2838SOL     MW11352   0.080   2.606   8.791
 2839SOL     OW11353   2.862   6.234   5.514
 2839SOL    HW111354   2.816   6.152   5.528
 2839SOL    HW211355   2.910   6.250   5.595
 2839SOL     MW11356   2.862   6.226   5.526
 2840SOL     OW11357   6.107   2.273   9.314
 2840SOL    HW111358   6.065   2.191   9.287
 2840SOL    HW211359   6.121   2.320   9.232
 2840SOL     MW11360   6.104   2.268   9.300
 2841SOL     OW11361   8.404   5.216   5.001
 2841SOL    HW111362   8.383   5.306   4.976
 2841SOL    HW211363   8.455   5.224   5.081
 2841SOL     MW11364   8.408   5.228   5.008
 2842SOL     OW11365   9.663   8.361   3.996
 2842SOL    HW111366   9.713   8.280   3.997
 2842SOL    HW211367   9.729   8.430   3.999
 2842SOL     MW11368   9.677   8.360   3.996
 2843SOL     OW11369   0.682   1.203   1.562
 2843SOL    HW111370   0.639   1.245   1.637
 2843SOL    HW211371   0.629   1.231   1.487
 2843SOL     MW11372   0.669   1.212   1.562
 2844SOL     OW11373   6.574   9.899   3.795
 2844SOL    HW111374   6.489   9.865   3.822
 2844SOL    HW211375   6.554   9.982   3.752
 2844SOL     MW11376   6.560   9.905   3.793
 2845SOL     OW11377   5.686   5.256   5.534
 2845SOL    HW111378   5.628   5.301   5.472
 2845SOL    HW211379   5.748   5.209   5.478
 2845SOL     MW11380   5.686   5.256   5.519
 2846SOL     OW11381   0.208   7.424   3.846
 2846SOL    HW111382   0.283   7.366   3.833
 2846SOL    HW211383   0.135   7.365   3.863
 2846SOL     MW11384   0.208   7.409   3.847
 2847SOL     OW11385   0.130   6.491   6.356
 2847SOL    HW111386   0.162   6.453   6.438
 2847SOL    HW211387   0.074   6.564   6.384
 2847SOL     MW11388   0.127   6.496   6.370
 2848SOL     OW11389   6.573   2.216   1.978
 2848SOL    HW111390   6.614   2.148   2.031
 2848SOL    HW211391   6.492   2.238   2.025
 2848SOL     MW11392   6.568   2.210   1.991
 2849SOL     OW11393   3.908   0.596   1.523
 2849SOL    HW111394   3.977   0.563   1.467
 2849SOL    HW211395   3.904   0.690   1.503
 2849SOL     MW11396   3.916   0.604   1.513
 2850SOL     OW11397   4.154   7.399   4.726
 2850SOL    HW111398   4.184   7.473   4.673
 2850SOL    HW211399   4.075   7.368   4.682
 2850SOL     MW11400   4.148   7.405   4.714
 2851SOL     OW11401   1.366   7.889   9.876
 2851SOL    HW111402   1.413   7.915   9.955
 2851SOL    HW211403   1.373   7.964   9.818
 2851SOL     MW11404   1.373   7.902   9.879
 2852SOL     OW11405   3.861   7.603   6.961
 2852SOL    HW111406   3.891   7.513   6.976
 2852SOL    HW211407   3.795   7.619   7.028
 2852SOL     MW11408   3.856   7.593   6.971
 2853SOL     OW11409   2.622   9.721   6.803
 2853SOL    HW111410   2.581   9.637   6.826
 2853SOL    HW211411   2.593   9.738   6.713
 2853SOL     MW11412   2.613   9.712   6.794
 2854SOL     OW11413   7.353   1.290   2.210
 2854SOL    HW111414   7.381   1.358   2.272
 2854SOL    HW211415   7.382   1.208   2.249
 2854SOL     MW11416   7.360   1.289   2.223
 2855SOL     OW11417   3.585   0.652   9.545
 2855SOL    HW111418   3.567   0.686   9.458
 2855SOL    HW211419   3.672   0.685   9.567
 2855SOL     MW11420   3.594   0.661   9.537
 2856SOL     OW11421   8.404   1.325   7.722
 2856SOL    HW111422   8.366   1.302   7.807
 2856SOL    HW211423   8.373   1.414   7.705
 2856SOL     MW11424   8.395   1.333   7.731
 2857SOL     OW11425   6.449   6.410   4.774
 2857SOL    HW111426   6.509   6.411   4.848
 2857SOL    HW211427   6.362   6.405   4.814
 2857SOL     MW11428   6.445   6.410   4.788
 2858SOL     OW11429   3.845   4.839   2.393
 2858SOL    HW111430   3.800   4.884   2.321
 2858SOL    HW211431   3.904   4.777   2.350
 2858SOL     MW11432   3.847   4.837   2.378
 2859SOL     OW11433   0.507   0.093   5.851
 2859SOL    HW111434   0.485   0.045   5.931
 2859SOL    HW211435   0.535   0.179   5.882
 2859SOL     MW11436   0.508   0.098   5.865
 2860SOL     OW11437   0.694   8.399   2.466
 2860SOL    HW111438   0.602   8.375   2.453
 2860SOL    HW211439   0.693   8.463   2.537
 2860SOL     MW11440   0.682   8.404   2.473
 2861SOL     OW11441   4.415   7.586   9.289
 2861SOL    HW111442   4.452   7.674   9.297
 2861SOL    HW211443   4.422   7.549   9.377
 2861SOL     MW11444   4.421   7.593   9.301
 2862SOL     OW11445   4.438   5.456   6.137
 2862SOL    HW111446   4.427   5.547   6.111
 2862SOL    HW211447   4.443   5.408   6.054
 2862SOL     MW11448   4.437   5.461   6.123
 2863SOL     OW11449   5.040   4.006   4.764
 2863SOL    HW111450   5.133   4.029   4.766
 2863SOL    HW211451   5.008   4.041   4.681
 2863SOL     MW11452   5.048   4.013   4.754
 2864SOL     OW11453   8.449   4.351   1.813
 2864SOL    HW111454   8.495   4.276   1.852
 2864SOL    HW211455   8.441   4.329   1.720
 2864SOL     MW11456   8.454   4.338   1.806
 2865SOL     OW11457   0.777   0.700   9.661
 2865SOL    HW111458   0.758   0.765   9.593
 2865SOL    HW211459   0.705   0.637   9.656
 2865SOL     MW11460   0.766   0.700   9.652
 2866SOL     OW11461   5.703   1.304   0.688
 2866SOL    HW111462   5.622   1.260   0.714
 2866SOL    HW211463   5.730   1.353   0.766
 2866SOL     MW11464   5.696   1.305   0.701
 2867SOL     OW11465   2.776   6.852   3.728
 2867SOL    HW111466   2.681   6.866   3.731
 2867SOL    HW211467   2.811   6.934   3.693
 2867SOL     MW11468   2.769   6.864   3.724
 2868SOL     OW11469  10.029   4.729   3.130
 2868SOL    HW111470  10.076   4.654   3.095
 2868SOL    HW211471   9.937   4.703   3.127
 2868SOL     MW11472  10.023   4.716   3.125
 2869SOL     OW11473   2.458   3.311   2.781
 2869SOL    HW111474   2.504   3.394   2.795
 2869SOL    HW211475   2.387   3.312   2.845
 2869SOL     MW11476   2.455   3.322   2.791
 2870SOL     OW11477   2.016   8.020   9.427
 2870SOL    HW111478   1.979   7.936   9.455
 2870SOL    HW211479   2.110   8.009   9.436
 2870SOL     MW11480   2.023   8.008   9.432
 2871SOL     OW11481   7.330   0.790   3.744
 2871SOL    HW111482   7.238   0.762   3.740
 2871SOL    HW211483   7.376   0.714   3.779
 2871SOL     MW11484   7.324   0.777   3.748
 2872SOL     OW11485   5.080   7.135   8.274
 2872SOL    HW111486   5.001   7.145   8.326
 2872SOL    HW211487   5.048   7.134   8.183
 2872SOL     MW11488   5.066   7.136   8.269
 2873SOL     OW11489   0.660   7.576   0.394
 2873SOL    HW111490   0.608   7.497   0.402
 2873SOL    HW211491   0.620   7.625   0.322
 2873SOL     MW11492   0.649   7.572   0.385
 2874SOL     OW11493   6.536   0.821   9.960
 2874SOL    HW111494   6.447   0.847   9.940
 2874SOL    HW211495   6.526   0.738  10.007
 2874SOL     MW11496   6.523   0.813   9.963
 2875SOL     OW11497   7.471   0.725   7.425
 2875SOL    HW111498   7.562   0.731   7.454
 2875SOL    HW211499   7.445   0.636   7.448
 2875SOL     MW11500   7.479   0.714   7.432
 2876SOL     OW11501   5.658   1.695   9.846
 2876SOL    HW111502   5.741   1.655   9.870
 2876SOL    HW211503   5.676   1.789   9.844
 2876SOL     MW11504   5.671   1.702   9.849
 2877SOL     OW11505   9.538   1.460   6.558
 2877SOL    HW111506   9.597   1.535   6.563
 2877SOL    HW211507   9.451   1.498   6.568
 2877SOL     MW11508   9.534   1.474   6.560
 2878SOL     OW11509   5.400   7.313   8.945
 2878SOL    HW111510   5.414   7.407   8.932
 2878SOL    HW211511   5.310   7.298   8.916
 2878SOL     MW11512   5.390   7.323   8.940
 2879SOL     OW11513   1.594   2.636   2.132
 2879SOL    HW111514   1.673   2.640   2.186
 2879SOL    HW211515   1.541   2.709   2.162
 2879SOL     MW11516   1.597   2.646   2.142
 2880SOL     OW11517   4.626   6.746   9.711
 2880SOL    HW111518   4.685   6.736   9.637
 2880SOL    HW211519   4.626   6.661   9.755
 2880SOL     MW11520   4.633   6.734   9.707
 2881SOL     OW11521   3.203   1.552   8.033
 2881SOL    HW111522   3.218   1.563   8.127
 2881SOL    HW211523   3.157   1.468   8.026
 2881SOL     MW11524   3.199   1.543   8.045
 2882SOL     OW11525   7.634   9.258   6.356
 2882SOL    HW111526   7.608   9.193   6.420
 2882SOL    HW211527   7.704   9.217   6.306
 2882SOL     MW11528   7.640   9.245   6.358
 2883SOL     OW11529   4.293   7.821   4.751
 2883SOL    HW111530   4.286   7.797   4.844
 2883SOL    HW211531   4.269   7.914   4.749
 2883SOL     MW11532   4.289   7.830   4.763
 2884SOL     OW11533  10.019   7.357   7.893
 2884SOL    HW111534  10.079   7.329   7.824
 2884SOL    HW211535  10.050   7.443   7.919
 2884SOL     MW11536  10.030   7.364   7.887
 2885SOL     OW11537   2.589   2.566   1.636
 2885SOL    HW111538   2.656   2.550   1.702
 2885SOL    HW211539   2.634   2.556   1.552
 2885SOL     MW11540   2.603   2.563   1.633
 2886SOL     OW11541   8.935   6.607   9.776
 2886SOL    HW111542   8.929   6.695   9.739
 2886SOL    HW211543   9.027   6.582   9.763
 2886SOL     MW11544   8.946   6.615   9.769
 2887SOL     OW11545   5.219   1.071   2.980
 2887SOL    HW111546   5.228   1.161   3.011
 2887SOL    HW211547   5.300   1.028   3.008
 2887SOL     MW11548   5.231   1.077   2.988
 2888SOL     OW11549   3.174   9.617   2.629
 2888SOL    HW111550   3.231   9.603   2.705
 2888SOL    HW211551   3.098   9.562   2.647
 2888SOL     MW11552   3.172   9.608   2.641
 2889SOL     OW11553   7.113   6.329   0.219
 2889SOL    HW111554   7.102   6.415   0.259
 2889SOL    HW211555   7.177   6.342   0.149
 2889SOL     MW11556   7.120   6.342   0.215
 2890SOL     OW11557   3.206   1.081   7.035
 2890SOL    HW111558   3.185   1.120   6.950
 2890SOL    HW211559   3.185   1.150   7.098
 2890SOL     MW11560   3.200   1.095   7.032
 2891SOL     OW11561   0.320   0.465   9.533
 2891SOL    HW111562   0.243   0.516   9.555
 2891SOL    HW211563   0.309   0.383   9.581
 2891SOL     MW11564   0.309   0.461   9.542
 2892SOL     OW11565   8.291   3.401   1.057
 2892SOL    HW111566   8.238   3.475   1.029
 2892SOL    HW211567   8.273   3.333   0.992
 2892SOL     MW11568   8.282   3.402   1.045
 2893SOL     OW11569   0.553   0.542   9.662
 2893SOL    HW111570   0.475   0.519   9.612
 2893SOL    HW211571   0.521   0.556   9.751
 2893SOL     MW11572   0.539   0.541   9.667
 2894SOL     OW11573   7.879   2.777   0.004
 2894SOL    HW111574   7.797   2.823  -0.014
 2894SOL    HW211575   7.922   2.829   0.072
 2894SOL     MW11576   7.874   2.789   0.010
 2895SOL     OW11577   2.864   3.814   9.155
 2895SOL    HW111578   2.773   3.798   9.181
 2895SOL    HW211579   2.864   3.800   9.060
 2895SOL     MW11580   2.852   3.810   9.146
 2896SOL     OW11581   6.302   0.952   9.908
 2896SOL    HW111582   6.324   1.028   9.854
 2896SOL    HW211583   6.291   0.988   9.996
 2896SOL     MW11584   6.304   0.966   9.913
 2897SOL     OW11585   3.427   4.191   7.996
 2897SOL    HW111586   3.343   4.174   8.038
 2897SOL    HW211587   3.445   4.112   7.945
 2897SOL     MW11588   3.419   4.179   7.995
 2898SOL     OW11589   2.096   8.831   7.997
 2898SOL    HW111590   2.094   8.923   8.023
 2898SOL    HW211591   2.131   8.833   7.908
 2898SOL     MW11592   2.100   8.843   7.989
 2899SOL     OW11593   3.915   2.853   7.878
 2899SOL    HW111594   3.821   2.851   7.863
 2899SOL    HW211595   3.944   2.763   7.867
 2899SOL     MW11596   3.907   2.841   7.875
 2900SOL     OW11597   7.396   0.616   5.229
 2900SOL    HW111598   7.484   0.627   5.193
 2900SOL    HW211599   7.410   0.576   5.314
 2900SOL     MW11600   7.409   0.612   5.235
 2901SOL     OW11601   9.851   4.857   6.657
 2901SOL    HW111602   9.783   4.873   6.722
 2901SOL    HW211603   9.888   4.944   6.639
 2901SOL     MW11604   9.847   4.870   6.663
 2902SOL     OW11605   2.968   2.742   7.777
 2902SOL    HW111606   2.982   2.718   7.868
 2902SOL    HW211607   2.972   2.659   7.729
 2902SOL     MW11608   2.970   2.729   7.782
 2903SOL     OW11609   7.326   7.174   3.536
 2903SOL    HW111610   7.332   7.200   3.628
 2903SOL    HW211611   7.279   7.245   3.493
 2903SOL     MW11612   7.321   7.186   3.542
 2904SOL     OW11613   1.005   3.546   3.464
 2904SOL    HW111614   0.948   3.610   3.507
 2904SOL    HW211615   1.056   3.508   3.535
 2904SOL     MW11616   1.004   3.549   3.479
 2905SOL     OW11617   8.543   1.887   9.032
 2905SOL    HW111618   8.509   1.797   9.027
 2905SOL    HW211619   8.487   1.936   8.972
 2905SOL     MW11620   8.531   1.882   9.024
 2906SOL     OW11621   0.141   9.456   7.394
 2906SOL    HW111622   0.226   9.501   7.394
 2906SOL    HW211623   0.138   9.411   7.478
 2906SOL     MW11624   0.152   9.456   7.405
 2907SOL     OW11625   1.419   3.626   9.943
 2907SOL    HW111626   1.359   3.699   9.962
 2907SOL    HW211627   1.364   3.560   9.900
 2907SOL     MW11628   1.404   3.627   9.940
 2908SOL     OW11629   3.603   4.722   0.336
 2908SOL    HW111630   3.572   4.785   0.402
 2908SOL    HW211631   3.528   4.710   0.278
 2908SOL     MW11632   3.589   4.728   0.337
 2909SOL     OW11633   9.056   2.570   9.813
 2909SOL    HW111634   9.093   2.521   9.886
 2909SOL    HW211635   9.001   2.636   9.855
 2909SOL     MW11636   9.054   2.572   9.828
 2910SOL     OW11637   2.730   7.216   0.419
 2910SOL    HW111638   2.659   7.257   0.468
 2910SOL    HW211639   2.689   7.186   0.338
 2910SOL     MW11640   2.716   7.217   0.415
 2911SOL     OW11641   8.582   4.964   9.656
 2911SOL    HW111642   8.495   5.004   9.649
 2911SOL    HW211643   8.592   4.913   9.576
 2911SOL     MW11644   8.572   4.962   9.645
 2912SOL     OW11645   0.227   5.222  10.132
 2912SOL    HW111646   0.175   5.166  10.189
 2912SOL    HW211647   0.315   5.220  10.171
 2912SOL     MW11648   0.232   5.215  10.144
 2913SOL     OW11649   3.583   0.352   1.614
 2913SOL    HW111650   3.527   0.417   1.657
 2913SOL    HW211651   3.527   0.276   1.603
 2913SOL     MW11652   3.568   0.351   1.618
 2914SOL     OW11653   1.410   1.920   9.262
 2914SOL    HW111654   1.319   1.919   9.235
 2914SOL    HW211655   1.459   1.943   9.183
 2914SOL     MW11656   1.405   1.923   9.249
 2915SOL     OW11657  10.040   2.923   1.196
 2915SOL    HW111658   9.961   2.973   1.177
 2915SOL    HW211659  10.011   2.855   1.257
 2915SOL     MW11660  10.026   2.921   1.201
 2916SOL     OW11661   7.577   6.931   9.510
 2916SOL    HW111662   7.636   6.994   9.550
 2916SOL    HW211663   7.528   6.893   9.583
 2916SOL     MW11664   7.578   6.934   9.524
 2917SOL     OW11665   9.969   0.161   0.991
 2917SOL    HW111666   9.876   0.138   0.996
 2917SOL    HW211667   9.988   0.167   0.897
 2917SOL     MW11668   9.960   0.159   0.980
 2918SOL     OW11669   8.522   6.799   3.801
 2918SOL    HW111670   8.586   6.825   3.867
 2918SOL    HW211671   8.504   6.707   3.819
 2918SOL     MW11672   8.528   6.791   3.812
 2919SOL     OW11673   4.542   3.459   8.552
 2919SOL    HW111674   4.487   3.463   8.474
 2919SOL    HW211675   4.527   3.543   8.596
 2919SOL     MW11676   4.533   3.470   8.548
 2920SOL     OW11677   0.206   3.218   8.137
 2920SOL    HW111678   0.205   3.231   8.232
 2920SOL    HW211679   0.252   3.295   8.103
 2920SOL     MW11680   0.212   3.230   8.145
 2921SOL     OW11681   9.334   2.061   0.365
 2921SOL    HW111682   9.395   2.036   0.296
 2921SOL    HW211683   9.248   2.048   0.326
 2921SOL     MW11684   9.331   2.056   0.351
 2922SOL     OW11685   0.476   3.451   2.809
 2922SOL    HW111686   0.550   3.390   2.816
 2922SOL    HW211687   0.464   3.483   2.899
 2922SOL     MW11688   0.484   3.447   2.822
 2923SOL     OW11689  10.095   7.509   1.692
 2923SOL    HW111690  10.036   7.568   1.645
 2923SOL    HW211691  10.069   7.518   1.784
 2923SOL     MW11692  10.084   7.518   1.698
 2924SOL     OW11693   1.090   7.664   0.986
 2924SOL    HW111694   1.017   7.620   0.943
 2924SOL    HW211695   1.050   7.739   1.030
 2924SOL     MW11696   1.076   7.668   0.986
 2925SOL     OW11697   5.935   0.269   9.347
 2925SOL    HW111698   5.882   0.347   9.363
 2925SOL    HW211699   5.877   0.195   9.365
 2925SOL     MW11700   5.921   0.270   9.351
 2926SOL     OW11701   6.963   8.170   7.670
 2926SOL    HW111702   6.913   8.147   7.748
 2926SOL    HW211703   6.967   8.266   7.671
 2926SOL     MW11704   6.957   8.180   7.680
 2927SOL     OW11705   6.022   1.305   3.387
 2927SOL    HW111706   6.011   1.391   3.346
 2927SOL    HW211707   6.103   1.313   3.436
 2927SOL     MW11708   6.031   1.317   3.388
 2928SOL     OW11709   2.598   6.050   2.627
 2928SOL    HW111710   2.647   6.123   2.666
 2928SOL    HW211711   2.594   6.070   2.534
 2928SOL     MW11712   2.604   6.062   2.620
 2929SOL     OW11713   3.829   6.863   7.411
 2929SOL    HW111714   3.875   6.801   7.355
 2929SOL    HW211715   3.761   6.811   7.453
 2929SOL     MW11716   3.826   6.848   7.409
 2930SOL     OW11717  10.111   5.948   7.251
 2930SOL    HW111718  10.106   5.938   7.155
 2930SOL    HW211719  10.116   5.858   7.284
 2930SOL     MW11720  10.111   5.935   7.243
 2931SOL     OW11721   7.054   1.714   0.884
 2931SOL    HW111722   7.074   1.702   0.977
 2931SOL    HW211723   7.012   1.632   0.858
 2931SOL     MW11724   7.051   1.702   0.892
 2932SOL     OW11725   3.337   4.528   5.774
 2932SOL    HW111726   3.320   4.444   5.816
 2932SOL    HW211727   3.381   4.580   5.842
 2932SOL     MW11728   3.340   4.524   5.788
 2933SOL     OW11729   0.947   9.860   4.207
 2933SOL    HW111730   1.000   9.834   4.131
 2933SOL    HW211731   0.877   9.795   4.210
 2933SOL     MW11732   0.945   9.849   4.198
 2934SOL     OW11733   4.798   7.469   3.220
 2934SOL    HW111734   4.714   7.515   3.224
 2934SOL    HW211735   4.781   7.392   3.166
 2934SOL     MW11736   4.785   7.465   3.214
 2935SOL     OW11737   8.330   2.794   6.518
 2935SOL    HW111738   8.416   2.826   6.489
 2935SOL    HW211739   8.337   2.699   6.515
 2935SOL     MW11740   8.342   2.786   6.514
 2936SOL     OW11741   0.622   2.403   6.674
 2936SOL    HW111742   0.546   2.415   6.616
 2936SOL    HW211743   0.622   2.309   6.694
 2936SOL     MW11744   0.612   2.393   6.669
 2937SOL     OW11745   1.328   7.373   4.194
 2937SOL    HW111746   1.244   7.419   4.191
 2937SOL    HW211747   1.313   7.295   4.140
 2937SOL     MW11748   1.315   7.369   4.186
 2938SOL     OW11749   8.841   7.434   4.437
 2938SOL    HW111750   8.762   7.440   4.490
 2938SOL    HW211751   8.814   7.466   4.351
 2938SOL     MW11752   8.827   7.439   4.433
 2939SOL     OW11753   2.181   0.269   9.355
 2939SOL    HW111754   2.182   0.306   9.443
 2939SOL    HW211755   2.108   0.207   9.356
 2939SOL     MW11756   2.172   0.265   9.366
 2940SOL     OW11757   0.017   1.900   1.067
 2940SOL    HW111758   0.047   1.901   0.976
 2940SOL    HW211759   0.095   1.874   1.117
 2940SOL     MW11760   0.031   1.897   1.062
 2941SOL     OW11761   7.586   0.263   5.728
 2941SOL    HW111762   7.675   0.298   5.725
 2941SOL    HW211763   7.572   0.241   5.820
 2941SOL     MW11764   7.596   0.265   5.740
 2942SOL     OW11765   9.266   0.555  10.089
 2942SOL    HW111766   9.352   0.549  10.048
 2942SOL    HW211767   9.283   0.555  10.183
 2942SOL     MW11768   9.279   0.554  10.096
 2943SOL     OW11769   1.920   5.829   1.095
 2943SOL    HW111770   2.006   5.787   1.100
 2943SOL    HW211771   1.898   5.826   1.001
 2943SOL     MW11772   1.928   5.823   1.083
 2944SOL     OW11773   3.624   9.223   6.256
 2944SOL    HW111774   3.720   9.220   6.261
 2944SOL    HW211775   3.606   9.294   6.195
 2944SOL     MW11776   3.634   9.231   6.249
 2945SOL     OW11777   1.565   1.018  10.134
 2945SOL    HW111778   1.543   1.049  10.047
 2945SOL    HW211779   1.483   1.025  10.183
 2945SOL     MW11780   1.552   1.023  10.129
 2946SOL     OW11781   9.910   3.923   8.658
 2946SOL    HW111782   9.850   3.973   8.713
 2946SOL    HW211783   9.865   3.839   8.644
 2946SOL     MW11784   9.897   3.918   8.663
 2947SOL     OW11785   0.418   7.352   8.070
 2947SOL    HW111786   0.459   7.417   8.014
 2947SOL    HW211787   0.348   7.400   8.115
 2947SOL     MW11788   0.414   7.366   8.069
 2948SOL     OW11789   5.389   4.994   8.291
 2948SOL    HW111790   5.324   4.982   8.360
 2948SOL    HW211791   5.351   5.059   8.232
 2948SOL     MW11792   5.376   5.001   8.293
 2949SOL     OW11793   9.534   7.196   2.542
 2949SOL    HW111794   9.585   7.181   2.463
 2949SOL    HW211795   9.471   7.124   2.544
 2949SOL     MW11796   9.532   7.185   2.532
 2950SOL     OW11797   2.158   7.190   2.676
 2950SOL    HW111798   2.177   7.256   2.608
 2950SOL    HW211799   2.063   7.197   2.689
 2950SOL     MW11800   2.148   7.200   2.669
 2951SOL     OW11801   8.820   8.883   8.066
 2951SOL    HW111802   8.914   8.901   8.059
 2951SOL    HW211803   8.785   8.954   8.119
 2951SOL     MW11804   8.827   8.894   8.072
 2952SOL     OW11805   3.126   0.196   7.723
 2952SOL    HW111806   3.109   0.163   7.811
 2952SOL    HW211807   3.045   0.241   7.698
 2952SOL     MW11808   3.113   0.198   7.731
 2953SOL     OW11809   3.062   6.298   5.338
 2953SOL    HW111810   2.988   6.276   5.394
 2953SOL    HW211811   3.044   6.253   5.255
 2953SOL     MW11812   3.051   6.289   5.334
 2954SOL     OW11813   2.937   0.277   1.003
 2954SOL    HW111814   3.018   0.258   0.956
 2954SOL    HW211815   2.955   0.357   1.052
 2954SOL     MW11816   2.950   0.285   1.003
 2955SOL     OW11817   9.159   4.578   3.063
 2955SOL    HW111818   9.151   4.508   3.129
 2955SOL    HW211819   9.072   4.585   3.026
 2955SOL     MW11820   9.147   4.570   3.067
 2956SOL     OW11821   0.807   6.826   3.560
 2956SOL    HW111822   0.800   6.815   3.465
 2956SOL    HW211823   0.827   6.739   3.593
 2956SOL     MW11824   0.809   6.814   3.552
 2957SOL     OW11825   9.282   0.048   7.596
 2957SOL    HW111826   9.307   0.118   7.657
 2957SOL    HW211827   9.200   0.078   7.558
 2957SOL     MW11828   9.275   0.061   7.599
 2958SOL     OW11829   3.935  10.079   7.992
 2958SOL    HW111830   3.853  10.126   8.003
 2958SOL    HW211831   3.964  10.101   7.903
 2958SOL     MW11832   3.928  10.088   7.982
 2959SOL     OW11833   4.800   7.814   0.103
 2959SOL    HW111834   4.862   7.742   0.112
 2959SOL    HW211835   4.719   7.772   0.072
 2959SOL     MW11836   4.798   7.799   0.100
 2960SOL     OW11837   5.518   9.812   2.947
 2960SOL    HW111838   5.518   9.851   2.860
 2960SOL    HW211839   5.593   9.851   2.991
 2960SOL     MW11840   5.527   9.822   2.941
 2961SOL     OW11841   4.953   4.954   9.514
 2961SOL    HW111842   4.995   4.891   9.571
 2961SOL    HW211843   4.928   5.026   9.572
 2961SOL     MW11844   4.955   4.955   9.529
 2962SOL     OW11845   6.180   9.115   1.332
 2962SOL    HW111846   6.273   9.103   1.350
 2962SOL    HW211847   6.172   9.208   1.308
 2962SOL     MW11848   6.191   9.125   1.331
 2963SOL     OW11849   5.258  10.000   2.652
 2963SOL    HW111850   5.198   9.939   2.696
 2963SOL    HW211851   5.217  10.016   2.567
 2963SOL     MW11852   5.245   9.994   2.647
 2964SOL     OW11853   7.801   2.030   1.765
 2964SOL    HW111854   7.744   2.022   1.688
 2964SOL    HW211855   7.781   1.952   1.817
 2964SOL     MW11856   7.791   2.019   1.762
 2965SOL     OW11857   1.801   1.426   8.057
 2965SOL    HW111858   1.751   1.416   8.138
 2965SOL    HW211859   1.889   1.395   8.080
 2965SOL     MW11860   1.806   1.421   8.070
 2966SOL     OW11861   8.113   3.144   3.350
 2966SOL    HW111862   8.173   3.160   3.277
 2966SOL    HW211863   8.030   3.120   3.309
 2966SOL     MW11864   8.110   3.143   3.335
 2967SOL     OW11865   5.600   7.150   8.847
 2967SOL    HW111866   5.642   7.120   8.927
 2967SOL    HW211867   5.530   7.208   8.876
 2967SOL     MW11868   5.596   7.153   8.861
 2968SOL     OW11869   2.171   4.997   2.747
 2968SOL    HW111870   2.213   4.912   2.733
 2968SOL    HW211871   2.224   5.059   2.695
 2968SOL     MW11872   2.183   4.994   2.739
 2969SOL     OW11873   7.812   4.977   9.355
 2969SOL    HW111874   7.817   4.943   9.266
 2969SOL    HW211875   7.900   4.963   9.392
 2969SOL     MW11876   7.824   4.971   9.349
 2970SOL     OW11877   9.343   1.685   2.824
 2970SOL    HW111878   9.248   1.691   2.819
 2970SOL    HW211879   9.360   1.658   2.914
 2970SOL     MW11880   9.333   1.682   2.835
 2971SOL     OW11881   7.424   4.981   6.182
 2971SOL    HW111882   7.361   4.911   6.165
 2971SOL    HW211883   7.491   4.940   6.237
 2971SOL     MW11884   7.424   4.967   6.187
 2972SOL     OW11885   8.180   6.469   5.832
 2972SOL    HW111886   8.264   6.467   5.786
 2972SOL    HW211887   8.199   6.507   5.917
 2972SOL     MW11888   8.193   6.473   5.837
 2973SOL     OW11889   3.023   8.362   6.876
 2973SOL    HW111890   3.106   8.329   6.911
 2973SOL    HW211891   2.966   8.369   6.952
 2973SOL     MW11892   3.027   8.359   6.890
 2974SOL     OW11893   4.098   8.414   2.295
 2974SOL    HW111894   4.193   8.424   2.298
 2974SOL    HW211895   4.084   8.319   2.288
 2974SOL     MW11896   4.108   8.403   2.294
 2975SOL     OW11897   8.457   8.447   8.255
 2975SOL    HW111898   8.367   8.415   8.244
 2975SOL    HW211899   8.471   8.450   8.350
 2975SOL     MW11900   8.447   8.443   8.266
 2976SOL     OW11901   6.899   5.772   4.871
 2976SOL    HW111902   6.946   5.700   4.829
 2976SOL    HW211903   6.883   5.741   4.960
 2976SOL     MW11904   6.903   5.759   4.877
 2977SOL     OW11905   0.103   2.544   7.666
 2977SOL    HW111906   0.069   2.633   7.674
 2977SOL    HW211907   0.040   2.498   7.611
 2977SOL     MW11908   0.091   2.549   7.660
 2978SOL     OW11909   0.415   3.879   5.488
 2978SOL    HW111910   0.493   3.928   5.515
 2978SOL    HW211911   0.445   3.788   5.485
 2978SOL     MW11912   0.429   3.874   5.491
 2979SOL     OW11913   8.462   9.527   6.459
 2979SOL    HW111914   8.386   9.520   6.402
 2979SOL    HW211915   8.520   9.456   6.431
 2979SOL     MW11916   8.460   9.517   6.448
 2980SOL     OW11917   9.550   4.257   5.843
 2980SOL    HW111918   9.638   4.220   5.839
 2980SOL    HW211919   9.562   4.352   5.836
 2980SOL     MW11920   9.563   4.264   5.841
 2981SOL     OW11921   1.823   1.090   6.899
 2981SOL    HW111922   1.777   1.151   6.842
 2981SOL    HW211923   1.764   1.078   6.974
 2981SOL     MW11924   1.809   1.096   6.901
 2982SOL     OW11925   7.943   8.227   8.230
 2982SOL    HW111926   8.010   8.173   8.189
 2982SOL    HW211927   7.860   8.196   8.193
 2982SOL     MW11928   7.941   8.216   8.220
 2983SOL     OW11929   4.500   6.575  10.066
 2983SOL    HW111930   4.495   6.670  10.057
 2983SOL    HW211931   4.536   6.544   9.983
 2983SOL     MW11932   4.504   6.583  10.054
 2984SOL     OW11933   7.903   0.802   1.042
 2984SOL    HW111934   7.899   0.898   1.038
 2984SOL    HW211935   7.964   0.784   1.113
 2984SOL     MW11936   7.910   0.812   1.050
 2985SOL     OW11937   4.987   5.826   2.803
 2985SOL    HW111938   4.899   5.831   2.842
 2985SOL    HW211939   5.046   5.845   2.876
 2985SOL     MW11940   4.983   5.829   2.817
 2986SOL     OW11941   8.544   3.323   9.517
 2986SOL    HW111942   8.560   3.353   9.427
 2986SOL    HW211943   8.460   3.363   9.540
 2986SOL     MW11944   8.535   3.332   9.508
 2987SOL     OW11945   0.436   8.305   2.430
 2987SOL    HW111946   0.365   8.305   2.493
 2987SOL    HW211947   0.397   8.339   2.349
 2987SOL     MW11948   0.422   8.309   2.428
 2988SOL     OW11949   1.419   4.833   8.860
 2988SOL    HW111950   1.501   4.874   8.833
 2988SOL    HW211951   1.421   4.746   8.819
 2988SOL     MW11952   1.430   4.827   8.851
 2989SOL     OW11953   6.473   9.377   5.257
 2989SOL    HW111954   6.512   9.459   5.287
 2989SOL    HW211955   6.542   9.312   5.269
 2989SOL     MW11956   6.487   9.379   5.262
 2990SOL     OW11957   4.454   8.954   4.992
 2990SOL    HW111958   4.519   8.973   4.925
 2990SOL    HW211959   4.475   8.866   5.022
 2990SOL     MW11960   4.465   8.945   4.987
 2991SOL     OW11961   9.900   5.825   8.233
 2991SOL    HW111962   9.942   5.739   8.232
 2991SOL    HW211963   9.811   5.808   8.204
 2991SOL     MW11964   9.894   5.812   8.229
 2992SOL     OW11965   5.834   6.657   5.144
 2992SOL    HW111966   5.820   6.736   5.197
 2992SOL    HW211967   5.748   6.615   5.141
 2992SOL     MW11968   5.821   6.662   5.151
 2993SOL     OW11969   4.972   4.046   0.817
 2993SOL    HW111970   5.006   4.133   0.795
 2993SOL    HW211971   5.047   4.000   0.854
 2993SOL     MW11972   4.986   4.051   0.819
 2994SOL     OW11973   2.866   5.677   7.276
 2994SOL    HW111974   2.909   5.597   7.246
 2994SOL    HW211975   2.782   5.676   7.231
 2994SOL     MW11976   2.861   5.666   7.266
 2995SOL     OW11977   6.465   4.455   3.864
 2995SOL    HW111978   6.492   4.363   3.851
 2995SOL    HW211979   6.380   4.449   3.907
 2995SOL     MW11980   6.458   4.442   3.868
 2996SOL     OW11981   2.148   1.772   7.565
 2996SOL    HW111982   2.133   1.705   7.498
 2996SOL    HW211983   2.153   1.854   7.517
 2996SOL     MW11984   2.146   1.774   7.550
 2997SOL     OW11985   4.597   7.665  10.148
 2997SOL    HW111986   4.534   7.652  10.077
 2997SOL    HW211987   4.552   7.633  10.226
 2997SOL     MW11988   4.583   7.659  10.149
 2998SOL     OW11989   6.937   1.895   2.341
 2998SOL    HW111990   7.013   1.948   2.367
 2998SOL    HW211991   6.974   1.821   2.294
 2998SOL     MW11992   6.952   1.893   2.339
 2999SOL     OW11993   3.397   1.100   5.502
 2999SOL    HW111994   3.365   1.011   5.518
 2999SOL    HW211995   3.343   1.156   5.557
 2999SOL     MW11996   3.386   1.096   5.511
 3000SOL     OW11997   4.794   7.200   6.205
 3000SOL    HW111998   4.878   7.170   6.240
 3000SOL    HW211999   4.814   7.229   6.116
 3000SOL     MW12000   4.807   7.200   6.198
 3001SOL     OW12001   1.002   1.189   4.958
 3001SOL    HW112002   1.011   1.168   4.865
 3001SOL    HW212003   1.048   1.272   4.969
 3001SOL     MW12004   1.009   1.197   4.947
 3002SOL     OW12005   6.632   2.834   8.188
 3002SOL    HW112006   6.626   2.927   8.166
 3002SOL    HW212007   6.688   2.796   8.121
 3002SOL     MW12008   6.638   2.841   8.177
 3003SOL     OW12009   4.736   6.066   3.900
 3003SOL    HW112010   4.711   6.157   3.883
 3003SOL    HW212011   4.798   6.045   3.831
 3003SOL     MW12012   4.741   6.075   3.889
 3004SOL     OW12013   1.435   2.935   9.643
 3004SOL    HW112014   1.472   2.849   9.621
 3004SOL    HW212015   1.480   2.996   9.584
 3004SOL     MW12016   1.446   2.932   9.633
 3005SOL     OW12017   2.545   3.288  10.183
 3005SOL    HW112018   2.611   3.251  10.125
 3005SOL    HW212019   2.473   3.313  10.125
 3005SOL     MW12020   2.545   3.287  10.168
 3006SOL     OW12021   9.220   2.475   3.216
 3006SOL    HW112022   9.209   2.398   3.272
 3006SOL    HW212023   9.232   2.548   3.277
 3006SOL     MW12024   9.220   2.475   3.231
 3007SOL     OW12025   7.632   4.869   4.544
 3007SOL    HW112026   7.687   4.867   4.466
 3007SOL    HW212027   7.663   4.795   4.597
 3007SOL     MW12028   7.643   4.859   4.541
 3008SOL     OW12029   2.747   7.938   1.942
 3008SOL    HW112030   2.700   7.939   2.025
 3008SOL    HW212031   2.750   7.846   1.917
 3008SOL     MW12032   2.742   7.927   1.949
 3009SOL     OW12033   3.393   3.833   5.336
 3009SOL    HW112034   3.479   3.841   5.295
 3009SOL    HW212035   3.334   3.885   5.281
 3009SOL     MW12036   3.396   3.840   5.324
 3010SOL     OW12037   3.905   2.508   8.566
 3010SOL    HW112038   3.917   2.549   8.651
 3010SOL    HW212039   3.881   2.580   8.507
 3010SOL     MW12040   3.903   2.522   8.569
 3011SOL     OW12041   9.202   5.969   2.105
 3011SOL    HW112042   9.209   6.061   2.079
 3011SOL    HW212043   9.108   5.953   2.113
 3011SOL     MW12044   9.191   5.979   2.103
 3012SOL     OW12045   2.175   3.665   5.785
 3012SOL    HW112046   2.172   3.628   5.697
 3012SOL    HW212047   2.098   3.629   5.829
 3012SOL     MW12048   2.165   3.655   5.780
 3013SOL     OW12049   4.591   3.320   3.850
 3013SOL    HW112050   4.504   3.335   3.886
 3013SOL    HW212051   4.605   3.226   3.859
 3013SOL     MW12052   4.581   3.310   3.856
 3014SOL     OW12053   9.132   8.680   5.621
 3014SOL    HW112054   9.087   8.752   5.666
 3014SOL    HW212055   9.063   8.638   5.569
 3014SOL     MW12056   9.117   8.684   5.620
 3015SOL     OW12057   6.937   6.517   7.611
 3015SOL    HW112058   6.915   6.539   7.701
 3015SOL    HW212059   6.987   6.593   7.579
 3015SOL     MW12060   6.941   6.530   7.618
 3016SOL     OW12061   4.027   2.435   0.941
 3016SOL    HW112062   4.092   2.374   0.975
 3016SOL    HW212063   3.944   2.405   0.980
 3016SOL     MW12064   4.025   2.424   0.950
 3017SOL     OW12065   0.127   6.227   3.024
 3017SOL    HW112066   0.209   6.182   3.044
 3017SOL    HW212067   0.135   6.312   3.068
 3017SOL     MW12068   0.139   6.232   3.032
 3018SOL     OW12069   0.254   6.649   1.787
 3018SOL    HW112070   0.339   6.605   1.789
 3018SOL    HW212071   0.266   6.723   1.727
 3018SOL     MW12072   0.266   6.653   1.779
 3019SOL     OW12073   6.649  10.113   6.623
 3019SOL    HW112074   6.701  10.047   6.578
 3019SOL    HW212075   6.658  10.191   6.568
 3019SOL     MW12076   6.657  10.115   6.610
 3020SOL     OW12077   4.884   1.469   0.159
 3020SOL    HW112078   4.797   1.487   0.196
 3020SOL    HW212079   4.909   1.385   0.198
 3020SOL     MW12080   4.876   1.460   0.169
 3021SOL     OW12081   3.100  10.187   4.314
 3021SOL    HW112082   3.064  10.142   4.237
 3021SOL    HW212083   3.146  10.119   4.362
 3021SOL     MW12084   3.101  10.172   4.310
 3022SOL     OW12085   1.632   9.776   3.988
 3022SOL    HW112086   1.636   9.710   3.919
 3022SOL    HW212087   1.538   9.783   4.009
 3022SOL     MW12088   1.620   9.769   3.982
 3023SOL     OW12089   9.726   0.389   8.934
 3023SOL    HW112090   9.766   0.448   8.871
 3023SOL    HW212091   9.721   0.440   9.015
 3023SOL     MW12092   9.730   0.403   8.937
 3024SOL     OW12093   3.842   2.726   8.409
 3024SOL    HW112094   3.830   2.799   8.469
 3024SOL    HW212095   3.876   2.766   8.329
 3024SOL     MW12096   3.845   2.740   8.407
 3025SOL     OW12097   5.898   0.144   1.124
 3025SOL    HW112098   5.821   0.091   1.142
 3025SOL    HW212099   5.867   0.216   1.070
 3025SOL     MW12100   5.884   0.146   1.120
 3026SOL     OW12101   6.502   7.667   9.304
 3026SOL    HW112102   6.539   7.728   9.241
 3026SOL    HW212103   6.459   7.600   9.250
 3026SOL     MW12104   6.501   7.666   9.289
 3027SOL     OW12105   8.301   3.415   9.612
 3027SOL    HW112106   8.252   3.334   9.626
 3027SOL    HW212107   8.319   3.448   9.699
 3027SOL     MW12108   8.297   3.409   9.625
 3028SOL     OW12109   7.234   0.226   2.378
 3028SOL    HW112110   7.282   0.293   2.330
 3028SOL    HW212111   7.187   0.177   2.310
 3028SOL     MW12112   7.234   0.229   2.363
 3029SOL     OW12113   3.534   2.850   9.268
 3029SOL    HW112114   3.557   2.813   9.353
 3029SOL    HW212115   3.562   2.784   9.205
 3029SOL     MW12116   3.540   2.837   9.271
 3030SOL     OW12117   7.853   3.749   2.685
 3030SOL    HW112118   7.906   3.817   2.727
 3030SOL    HW212119   7.898   3.667   2.707
 3030SOL     MW12120   7.866   3.747   2.693
 3031SOL     OW12121   9.391   1.953   3.795
 3031SOL    HW112122   9.401   1.860   3.813
 3031SOL    HW212123   9.306   1.961   3.752
 3031SOL     MW12124   9.382   1.942   3.792
 3032SOL     OW12125   0.023   7.676   8.576
 3032SOL    HW112126  -0.030   7.706   8.650
 3032SOL    HW212127   0.048   7.756   8.530
 3032SOL     MW12128   0.020   7.690   8.579
 3033SOL     OW12129   6.355   9.635   3.022
 3033SOL    HW112130   6.367   9.553   3.071
 3033SOL    HW212131   6.300   9.688   3.079
 3033SOL     MW12132   6.350   9.631   3.036
 3034SOL     OW12133   4.792   8.132   1.269
 3034SOL    HW112134   4.851   8.156   1.341
 3034SOL    HW212135   4.804   8.037   1.260
 3034SOL     MW12136   4.801   8.123   1.277
 3035SOL     OW12137   5.373   0.301   3.537
 3035SOL    HW112138   5.406   0.214   3.514
 3035SOL    HW212139   5.390   0.310   3.631
 3035SOL     MW12140   5.379   0.291   3.546
 3036SOL     OW12141   4.460   0.964   0.241
 3036SOL    HW112142   4.466   0.990   0.332
 3036SOL    HW212143   4.524   0.894   0.231
 3036SOL     MW12144   4.469   0.958   0.251
 3037SOL     OW12145   3.747   7.438   8.115
 3037SOL    HW112146   3.722   7.351   8.083
 3037SOL    HW212147   3.723   7.498   8.045
 3037SOL     MW12148   3.741   7.434   8.102
 3038SOL     OW12149   7.811   4.289   6.276
 3038SOL    HW112150   7.791   4.195   6.276
 3038SOL    HW212151   7.753   4.326   6.210
 3038SOL     MW12152   7.801   4.282   6.268
 3039SOL     OW12153   4.205   1.204   0.433
 3039SOL    HW112154   4.266   1.278   0.430
 3039SOL    HW212155   4.199   1.174   0.343
 3039SOL     MW12156   4.212   1.210   0.421
 3040SOL     OW12157   5.105   7.005   6.777
 3040SOL    HW112158   5.033   6.955   6.817
 3040SOL    HW212159   5.069   7.037   6.695
 3040SOL     MW12160   5.091   7.002   6.772
 3041SOL     OW12161   6.053   2.332   5.711
 3041SOL    HW112162   6.111   2.386   5.765
 3041SOL    HW212163   5.965   2.353   5.743
 3041SOL     MW12164   6.049   2.342   5.722
 3042SOL     OW12165   7.495   1.496   2.335
 3042SOL    HW112166   7.541   1.496   2.418
 3042SOL    HW212167   7.556   1.456   2.273
 3042SOL     MW12168   7.509   1.491   2.338
 3043SOL     OW12169   0.738   5.253   6.660
 3043SOL    HW112170   0.653   5.296   6.663
 3043SOL    HW212171   0.774   5.274   6.574
 3043SOL     MW12172   0.732   5.261   6.650
 3044SOL     OW12173   3.629   1.258   6.921
 3044SOL    HW112174   3.661   1.185   6.869
 3044SOL    HW212175   3.658   1.336   6.874
 3044SOL     MW12176   3.637   1.259   6.909
 3045SOL     OW12177   9.329   7.586   9.322
 3045SOL    HW112178   9.401   7.554   9.376
 3045SOL    HW212179   9.367   7.599   9.236
 3045SOL     MW12180   9.343   7.584   9.318
 3046SOL     OW12181   5.088   5.820   1.905
 3046SOL    HW112182   5.070   5.849   1.816
 3046SOL    HW212183   5.010   5.770   1.930
 3046SOL     MW12184   5.075   5.817   1.897
 3047SOL     OW12185   5.862   5.972   8.000
 3047SOL    HW112186   5.780   5.968   7.951
 3047SOL    HW212187   5.879   5.881   8.024
 3047SOL     MW12188   5.853   5.960   7.997
 3048SOL     OW12189   2.320   7.801   3.996
 3048SOL    HW112190   2.364   7.723   3.961
 3048SOL    HW212191   2.259   7.766   4.062
 3048SOL     MW12192   2.318   7.786   4.000
 3049SOL     OW12193   3.539   6.971   6.249
 3049SOL    HW112194   3.621   7.011   6.221
 3049SOL    HW212195   3.565   6.893   6.299
 3049SOL     MW12196   3.553   6.966   6.252
 3050SOL     OW12197   3.795   6.782   0.621
 3050SOL    HW112198   3.853   6.735   0.681
 3050SOL    HW212199   3.829   6.872   0.621
 3050SOL     MW12200   3.807   6.788   0.629
 3051SOL     OW12201   9.117   6.387   5.600
 3051SOL    HW112202   9.209   6.413   5.605
 3051SOL    HW212203   9.107   6.350   5.512
 3051SOL     MW12204   9.128   6.386   5.590
 3052SOL     OW12205   3.441   4.708   5.964
 3052SOL    HW112206   3.535   4.727   5.965
 3052SOL    HW212207   3.414   4.714   6.056
 3052SOL     MW12208   3.450   4.711   5.976
 3053SOL     OW12209   0.891   2.649   7.004
 3053SOL    HW112210   0.831   2.641   6.929
 3053SOL    HW212211   0.978   2.653   6.964
 3053SOL     MW12212   0.894   2.649   6.989
 3054SOL     OW12213   2.858  10.043   1.317
 3054SOL    HW112214   2.874  10.086   1.233
 3054SOL    HW212215   2.805  10.106   1.366
 3054SOL     MW12216   2.853  10.057   1.312
 3055SOL     OW12217   6.384   0.048   1.030
 3055SOL    HW112218   6.450   0.095   1.082
 3055SOL    HW212219   6.301   0.066   1.075
 3055SOL     MW12220   6.382   0.056   1.042
 3056SOL     OW12221   6.717   9.643   1.598
 3056SOL    HW112222   6.629   9.613   1.580
 3056SOL    HW212223   6.771   9.564   1.600
 3056SOL     MW12224   6.713   9.629   1.596
 3057SOL     OW12225   1.275   0.795   9.614
 3057SOL    HW112226   1.191   0.749   9.607
 3057SOL    HW212227   1.337   0.727   9.643
 3057SOL     MW12228   1.273   0.780   9.617
 3058SOL     OW12229   6.746   4.401   9.690
 3058SOL    HW112230   6.773   4.486   9.655
 3058SOL    HW212231   6.705   4.356   9.616
 3058SOL     MW12232   6.744   4.406   9.676
 3059SOL     OW12233   8.680   4.774   5.344
 3059SOL    HW112234   8.610   4.740   5.287
 3059SOL    HW212235   8.719   4.696   5.383
 3059SOL     MW12236   8.676   4.760   5.341
 3060SOL     OW12237   8.028   9.082   2.197
 3060SOL    HW112238   8.057   9.174   2.193
 3060SOL    HW212239   8.032   9.053   2.106
 3060SOL     MW12240   8.032   9.090   2.185
 3061SOL     OW12241   8.226   1.258   7.921
 3061SOL    HW112242   8.171   1.316   7.867
 3061SOL    HW212243   8.185   1.172   7.913
 3061SOL     MW12244   8.214   1.255   7.913
 3062SOL     OW12245   8.060   4.881   4.918
 3062SOL    HW112246   8.012   4.948   4.967
 3062SOL    HW212247   8.150   4.912   4.915
 3062SOL     MW12248   8.065   4.893   4.924
 3063SOL     OW12249   2.840   4.044   1.079
 3063SOL    HW112250   2.778   3.977   1.048
 3063SOL    HW212251   2.899   3.997   1.138
 3063SOL     MW12252   2.839   4.029   1.082
 3064SOL     OW12253   7.797   4.381   6.732
 3064SOL    HW112254   7.889   4.363   6.750
 3064SOL    HW212255   7.777   4.459   6.785
 3064SOL     MW12256   7.806   4.389   6.741
 3065SOL     OW12257   3.442   0.298   4.715
 3065SOL    HW112258   3.398   0.277   4.798
 3065SOL    HW212259   3.501   0.224   4.700
 3065SOL     MW12260   3.444   0.286   4.724
 3066SOL     OW12261   6.600   4.941   3.914
 3066SOL    HW112262   6.610   4.846   3.914
 3066SOL    HW212263   6.587   4.964   3.822
 3066SOL     MW12264   6.599   4.931   3.903
 3067SOL     OW12265   9.521   2.902   1.427
 3067SOL    HW112266   9.460   2.831   1.443
 3067SOL    HW212267   9.607   2.865   1.449
 3067SOL     MW12268   9.524   2.888   1.432
 3068SOL     OW12269   4.998   8.127   4.533
 3068SOL    HW112270   5.052   8.084   4.599
 3068SOL    HW212271   5.048   8.116   4.451
 3068SOL     MW12272   5.011   8.120   4.531
 3069SOL     OW12273   7.672   6.903   9.251
 3069SOL    HW112274   7.636   6.905   9.340
 3069SOL    HW212275   7.696   6.812   9.236
 3069SOL     MW12276   7.670   6.892   9.261
 3070SOL     OW12277   1.381   0.417   0.505
 3070SOL    HW112278   1.395   0.508   0.531
 3070SOL    HW212279   1.470   0.381   0.495
 3070SOL     MW12280   1.394   0.424   0.507
 3071SOL     OW12281   8.953   3.613   3.925
 3071SOL    HW112282   9.012   3.573   3.860
 3071SOL    HW212283   8.866   3.585   3.899
 3071SOL     MW12284   8.950   3.604   3.914
 3072SOL     OW12285   5.020   5.124   3.840
 3072SOL    HW112286   4.975   5.188   3.895
 3072SOL    HW212287   4.975   5.041   3.857
 3072SOL     MW12288   5.009   5.121   3.849
 3073SOL     OW12289   8.680   3.897   1.926
 3073SOL    HW112290   8.628   3.817   1.913
 3073SOL    HW212291   8.769   3.864   1.942
 3073SOL     MW12292   8.685   3.882   1.926
 3074SOL     OW12293   5.729   9.601   3.618
 3074SOL    HW112294   5.656   9.646   3.576
 3074SOL    HW212295   5.688   9.541   3.680
 3074SOL     MW12296   5.715   9.599   3.620
 3075SOL     OW12297   3.135   4.434   5.029
 3075SOL    HW112298   3.147   4.528   5.037
 3075SOL    HW212299   3.064   4.424   4.966
 3075SOL     MW12300   3.127   4.445   5.022
 3076SOL     OW12301   0.662   7.868   9.083
 3076SOL    HW112302   0.745   7.855   9.128
 3076SOL    HW212303   0.681   7.853   8.991
 3076SOL     MW12304   0.675   7.864   9.077
 3077SOL     OW12305   0.606   7.382   2.671
 3077SOL    HW112306   0.672   7.312   2.670
 3077SOL    HW212307   0.577   7.387   2.762
 3077SOL     MW12308   0.611   7.373   2.682
 3078SOL     OW12309  10.075   1.017   5.328
 3078SOL    HW112310  10.030   0.972   5.258
 3078SOL    HW212311  10.163   0.979   5.329
 3078SOL     MW12312  10.081   1.006   5.319
 3079SOL     OW12313   7.209   0.790   0.703
 3079SOL    HW112314   7.175   0.880   0.705
 3079SOL    HW212315   7.190   0.760   0.614
 3079SOL     MW12316   7.202   0.798   0.691
 3080SOL     OW12317   2.323   5.763   2.471
 3080SOL    HW112318   2.294   5.696   2.533
 3080SOL    HW212319   2.328   5.843   2.524
 3080SOL     MW12320   2.320   5.765   2.486
 3081SOL     OW12321   4.797   6.780   5.454
 3081SOL    HW112322   4.721   6.750   5.504
 3081SOL    HW212323   4.763   6.792   5.365
 3081SOL     MW12324   4.783   6.777   5.449
 3082SOL     OW12325   6.386   6.842   1.028
 3082SOL    HW112326   6.461   6.888   1.067
 3082SOL    HW212327   6.419   6.754   1.009
 3082SOL     MW12328   6.400   6.837   1.031
 3083SOL     OW12329   6.811   0.382   6.554
 3083SOL    HW112330   6.791   0.419   6.641
 3083SOL    HW212331   6.861   0.451   6.510
 3083SOL     MW12332   6.815   0.395   6.560
 3084SOL     OW12333   1.034   3.923   6.324
 3084SOL    HW112334   0.979   3.972   6.384
 3084SOL    HW212335   1.044   3.837   6.365
 3084SOL     MW12336   1.028   3.918   6.337
 3085SOL     OW12337   1.941   2.292   3.643
 3085SOL    HW112338   1.923   2.323   3.554
 3085SOL    HW212339   2.022   2.242   3.636
 3085SOL     MW12340   1.949   2.290   3.631
 3086SOL     OW12341   4.935   8.405   8.533
 3086SOL    HW112342   4.974   8.382   8.617
 3086SOL    HW212343   4.882   8.329   8.510
 3086SOL     MW12344   4.933   8.393   8.541
 3087SOL     OW12345   8.308   4.996   9.640
 3087SOL    HW112346   8.302   4.907   9.675
 3087SOL    HW212347   8.242   4.999   9.571
 3087SOL     MW12348   8.299   4.985   9.636
 3088SOL     OW12349   9.329   4.102   4.178
 3088SOL    HW112350   9.316   4.041   4.106
 3088SOL    HW212351   9.424   4.107   4.189
 3088SOL     MW12352   9.339   4.095   4.170
 3089SOL     OW12353   5.890   1.573   9.938
 3089SOL    HW112354   5.887   1.482   9.908
 3089SOL    HW212355   5.846   1.572  10.022
 3089SOL     MW12356   5.884   1.561   9.945
 3090SOL     OW12357   5.707   3.820   5.774
 3090SOL    HW112358   5.697   3.729   5.801
 3090SOL    HW212359   5.718   3.869   5.855
 3090SOL     MW12360   5.707   3.815   5.788
 3091SOL     OW12361   4.360   2.862   7.047
 3091SOL    HW112362   4.292   2.838   6.984
 3091SOL    HW212363   4.359   2.792   7.112
 3091SOL     MW12364   4.351   2.850   7.047
 3092SOL     OW12365   2.702   5.169   7.759
 3092SOL    HW112366   2.625   5.226   7.757
 3092SOL    HW212367   2.745   5.188   7.843
 3092SOL     MW12368   2.698   5.179   7.770
 3093SOL     OW12369   3.060   0.108   7.977
 3093SOL    HW112370   3.089   0.141   8.062
 3093SOL    HW212371   3.022   0.022   7.997
 3093SOL     MW12372   3.059   0.101   7.990
 3094SOL     OW12373   0.292   5.456   8.340
 3094SOL    HW112374   0.273   5.498   8.424
 3094SOL    HW212375   0.369   5.402   8.357
 3094SOL     MW12376   0.300   5.454   8.353
 3095SOL     OW12377   1.864   6.506   2.108
 3095SOL    HW112378   1.835   6.451   2.182
 3095SOL    HW212379   1.918   6.447   2.055
 3095SOL     MW12380   1.867   6.491   2.111
 3096SOL     OW12381   7.449   0.220   5.488
 3096SOL    HW112382   7.388   0.151   5.513
 3096SOL    HW212383   7.498   0.240   5.568
 3096SOL     MW12384   7.447   0.214   5.501
 3097SOL     OW12385   0.981   2.968   4.066
 3097SOL    HW112386   0.978   3.012   4.151
 3097SOL    HW212387   0.995   2.876   4.087
 3097SOL     MW12388   0.982   2.962   4.080
 3098SOL     OW12389   6.478  10.076   2.123
 3098SOL    HW112390   6.547  10.061   2.057
 3098SOL    HW212391   6.524  10.072   2.207
 3098SOL     MW12392   6.493  10.074   2.125
 3099SOL     OW12393   4.299   8.366   3.195
 3099SOL    HW112394   4.302   8.455   3.158
 3099SOL    HW212395   4.247   8.376   3.275
 3099SOL     MW12396   4.292   8.379   3.201
 3100SOL     OW12397   8.701   3.402   7.718
 3100SOL    HW112398   8.758   3.402   7.642
 3100SOL    HW212399   8.759   3.379   7.791
 3100SOL     MW12400   8.716   3.399   7.718
 3101SOL     OW12401   6.699   6.943   3.535
 3101SOL    HW112402   6.635   6.983   3.594
 3101SOL    HW212403   6.783   6.980   3.562
 3101SOL     MW12404   6.702   6.953   3.546
 3102SOL     OW12405   1.718   4.039   7.655
 3102SOL    HW112406   1.726   4.090   7.574
 3102SOL    HW212407   1.697   3.950   7.626
 3102SOL     MW12408   1.717   4.034   7.641
 3103SOL     OW12409   2.466   5.305   7.750
 3103SOL    HW112410   2.393   5.323   7.810
 3103SOL    HW212411   2.427   5.249   7.683
 3103SOL     MW12412   2.451   5.300   7.749
 3104SOL     OW12413   1.546   5.523   8.986
 3104SOL    HW112414   1.503   5.473   9.056
 3104SOL    HW212415   1.617   5.570   9.031
 3104SOL     MW12416   1.550   5.523   9.001
 3105SOL     OW12417   9.493   3.500   4.238
 3105SOL    HW112418   9.579   3.505   4.280
 3105SOL    HW212419   9.442   3.443   4.296
 3105SOL     MW12420   9.497   3.493   4.251
 3106SOL     OW12421   4.446   4.104   2.771
 3106SOL    HW112422   4.495   4.106   2.853
 3106SOL    HW212423   4.482   4.177   2.720
 3106SOL     MW12424   4.457   4.113   2.775
 3107SOL     OW12425   0.050   9.199   2.295
 3107SOL    HW112426   0.105   9.185   2.372
 3107SOL    HW212427   0.111   9.229   2.228
 3107SOL     MW12428   0.065   9.201   2.296
 3108SOL     OW12429   0.851   0.732   8.054
 3108SOL    HW112430   0.845   0.788   7.977
 3108SOL    HW212431   0.945   0.716   8.064
 3108SOL     MW12432   0.862   0.737   8.045
 3109SOL     OW12433   3.957   6.093   9.670
 3109SOL    HW112434   3.920   6.073   9.756
 3109SOL    HW212435   3.897   6.156   9.632
 3109SOL     MW12436   3.945   6.099   9.676
 3110SOL     OW12437   8.776   5.856   7.605
 3110SOL    HW112438   8.715   5.802   7.555
 3110SOL    HW212439   8.787   5.809   7.689
 3110SOL     MW12440   8.770   5.843   7.610
 3111SOL     OW12441   9.928   4.272   2.071
 3111SOL    HW112442   9.930   4.264   2.166
 3111SOL    HW212443  10.020   4.285   2.047
 3111SOL     MW12444   9.940   4.272   2.080
 3112SOL     OW12445   3.155   5.342   3.530
 3112SOL    HW112446   3.161   5.261   3.580
 3112SOL    HW212447   3.245   5.363   3.506
 3112SOL     MW12448   3.167   5.335   3.533
 3113SOL     OW12449   3.871   7.049   0.642
 3113SOL    HW112450   3.932   7.086   0.705
 3113SOL    HW212451   3.860   7.117   0.576
 3113SOL     MW12452   3.877   7.062   0.641
 3114SOL     OW12453   0.485   0.588   9.927
 3114SOL    HW112454   0.426   0.647   9.974
 3114SOL    HW212455   0.494   0.512   9.984
 3114SOL     MW12456   0.478   0.586   9.940
 3115SOL     OW12457   6.874   2.945   4.756
 3115SOL    HW112458   6.950   2.893   4.782
 3115SOL    HW212459   6.883   2.957   4.662
 3115SOL     MW12460   6.885   2.940   4.747
 3116SOL     OW12461   8.175   0.637   1.458
 3116SOL    HW112462   8.121   0.624   1.536
 3116SOL    HW212463   8.232   0.561   1.456
 3116SOL     MW12464   8.175   0.626   1.468
 3117SOL     OW12465   9.649   2.170   7.556
 3117SOL    HW112466   9.685   2.251   7.522
 3117SOL    HW212467   9.725   2.112   7.566
 3117SOL     MW12468   9.664   2.173   7.553
 3118SOL     OW12469   3.818   7.784   7.728
 3118SOL    HW112470   3.800   7.872   7.760
 3118SOL    HW212471   3.800   7.788   7.634
 3118SOL     MW12472   3.813   7.795   7.720
 3119SOL     OW12473   6.117   4.761   7.302
 3119SOL    HW112474   6.157   4.808   7.229
 3119SOL    HW212475   6.136   4.669   7.284
 3119SOL     MW12476   6.124   4.755   7.290
 3120SOL     OW12477   7.503   5.847   6.893
 3120SOL    HW112478   7.504   5.751   6.889
 3120SOL    HW212479   7.426   5.868   6.945
 3120SOL     MW12480   7.494   5.838   6.900
 3121SOL     OW12481   3.109   3.703   8.776
 3121SOL    HW112482   3.125   3.771   8.709
 3121SOL    HW212483   3.080   3.627   8.726
 3121SOL     MW12484   3.107   3.702   8.761
 3122SOL     OW12485   1.485   9.614   6.940
 3122SOL    HW112486   1.568   9.619   6.892
 3122SOL    HW212487   1.509   9.634   7.031
 3122SOL     MW12488   1.499   9.617   6.945
 3123SOL     OW12489   7.318   9.623   0.866
 3123SOL    HW112490   7.269   9.617   0.949
 3123SOL    HW212491   7.253   9.652   0.802
 3123SOL     MW12492   7.304   9.626   0.869
 3124SOL     OW12493   4.491   1.090   8.094
 3124SOL    HW112494   4.510   1.180   8.121
 3124SOL    HW212495   4.571   1.042   8.115
 3124SOL     MW12496   4.504   1.096   8.100
 3125SOL     OW12497   5.055   1.245   5.678
 3125SOL    HW112498   5.056   1.155   5.646
 3125SOL    HW212499   5.078   1.298   5.602
 3125SOL     MW12500   5.058   1.240   5.664
 3126SOL     OW12501   0.755   1.117   8.016
 3126SOL    HW112502   0.814   1.140   8.087
 3126SOL    HW212503   0.702   1.196   8.002
 3126SOL     MW12504   0.755   1.130   8.023
 3127SOL     OW12505   1.145   5.467   7.157
 3127SOL    HW112506   1.183   5.526   7.092
 3127SOL    HW212507   1.206   5.468   7.230
 3127SOL     MW12508   1.158   5.475   7.158
 3128SOL     OW12509   3.950   8.909   4.957
 3128SOL    HW112510   4.042   8.884   4.950
 3128SOL    HW212511   3.918   8.909   4.867
 3128SOL     MW12512   3.958   8.906   4.945
 3129SOL     OW12513   1.019   2.706   4.141
 3129SOL    HW112514   0.951   2.640   4.154
 3129SOL    HW212515   1.100   2.663   4.167
 3129SOL     MW12516   1.020   2.692   4.146
 3130SOL     OW12517   4.469   7.589   0.214
 3130SOL    HW112518   4.455   7.507   0.262
 3130SOL    HW212519   4.441   7.657   0.275
 3130SOL     MW12520   4.464   7.587   0.228
 3131SOL     OW12521   8.287   6.482   1.314
 3131SOL    HW112522   8.314   6.437   1.394
 3131SOL    HW212523   8.201   6.519   1.335
 3131SOL     MW12524   8.279   6.481   1.327
 3132SOL     OW12525   3.105   9.918   9.753
 3132SOL    HW112526   3.062  10.002   9.735
 3132SOL    HW212527   3.133   9.887   9.667
 3132SOL     MW12528   3.103   9.925   9.739
 3133SOL     OW12529   5.945   7.302   2.878
 3133SOL    HW112530   5.902   7.317   2.962
 3133SOL    HW212531   5.901   7.361   2.817
 3133SOL     MW12532   5.934   7.311   2.881
 3134SOL     OW12533   1.820   5.751   9.224
 3134SOL    HW112534   1.816   5.845   9.242
 3134SOL    HW212535   1.829   5.711   9.311
 3134SOL     MW12536   1.821   5.758   9.238
 3135SOL     OW12537   5.623   3.312   2.849
 3135SOL    HW112538   5.554   3.351   2.903
 3135SOL    HW212539   5.589   3.226   2.824
 3135SOL     MW12540   5.610   3.306   2.853
 3136SOL     OW12541   2.306   6.868   3.018
 3136SOL    HW112542   2.397   6.898   3.009
 3136SOL    HW212543   2.268   6.881   2.931
 3136SOL     MW12544   2.313   6.874   3.005
 3137SOL     OW12545  10.030   9.975   0.646
 3137SOL    HW112546  10.051   9.883   0.661
 3137SOL    HW212547   9.957   9.993   0.705
 3137SOL     MW12548  10.024   9.966   0.656
 3138SOL     OW12549   4.905   4.132   1.622
 3138SOL    HW112550   4.855   4.212   1.639
 3138SOL    HW212551   4.972   4.130   1.691
 3138SOL     MW12552   4.907   4.142   1.633
 3139SOL     OW12553   6.275   9.465   0.806
 3139SOL    HW112554   6.312   9.377   0.809
 3139SOL    HW212555   6.187   9.453   0.770
 3139SOL     MW12556   6.269   9.452   0.802
 3140SOL     OW12557   5.505   0.028   9.320
 3140SOL    HW112558   5.444  -0.012   9.382
 3140SOL    HW212559   5.460   0.022   9.236
 3140SOL     MW12560   5.491   0.022   9.317
 3141SOL     OW12561   4.027   7.409   2.915
 3141SOL    HW112562   4.031   7.320   2.951
 3141SOL    HW212563   4.119   7.432   2.897
 3141SOL     MW12564   4.040   7.400   2.917
 3142SOL     OW12565   4.690   2.230   0.588
 3142SOL    HW112566   4.615   2.250   0.643
 3142SOL    HW212567   4.743   2.169   0.641
 3142SOL     MW12568   4.687   2.225   0.602
 3143SOL     OW12569   6.750   7.324  10.103
 3143SOL    HW112570   6.709   7.261  10.162
 3143SOL    HW212571   6.800   7.382  10.161
 3143SOL     MW12572   6.751   7.324  10.118
 3144SOL     OW12573   4.082   2.619   5.043
 3144SOL    HW112574   4.134   2.666   5.108
 3144SOL    HW212575   4.146   2.582   4.983
 3144SOL     MW12576   4.097   2.620   5.044
 3145SOL     OW12577   9.844   3.736   6.625
 3145SOL    HW112578   9.784   3.807   6.603
 3145SOL    HW212579   9.804   3.657   6.588
 3145SOL     MW12580   9.831   3.735   6.617
 3146SOL     OW12581   6.978   9.019   5.954
 3146SOL    HW112582   7.034   9.086   5.916
 3146SOL    HW212583   6.948   9.057   6.037
 3146SOL     MW12584   6.982   9.032   5.960
 3147SOL     OW12585   7.283   6.734   8.147
 3147SOL    HW112586   7.377   6.735   8.165
 3147SOL    HW212587   7.258   6.642   8.151
 3147SOL     MW12588   7.292   6.723   8.150
 3148SOL     OW12589   7.279   9.848   7.493
 3148SOL    HW112590   7.186   9.855   7.475
 3148SOL    HW212591   7.321   9.883   7.414
 3148SOL     MW12592   7.273   9.853   7.481
 3149SOL     OW12593   0.548   3.467   3.094
 3149SOL    HW112594   0.536   3.479   3.188
 3149SOL    HW212595   0.639   3.493   3.078
 3149SOL     MW12596   0.558   3.472   3.104
 3150SOL     OW12597   7.283   9.209   5.596
 3150SOL    HW112598   7.229   9.240   5.524
 3150SOL    HW212599   7.317   9.125   5.567
 3150SOL     MW12600   7.280   9.202   5.583
 3151SOL     OW12601   3.680   5.166   1.395
 3151SOL    HW112602   3.727   5.217   1.329
 3151SOL    HW212603   3.727   5.083   1.399
 3151SOL     MW12604   3.692   5.162   1.387
 3152SOL     OW12605   0.171   1.460   3.681
 3152SOL    HW112606   0.114   1.530   3.649
 3152SOL    HW212607   0.165   1.466   3.776
 3152SOL     MW12608   0.163   1.470   3.689
 3153SOL     OW12609   9.344   3.750   8.000
 3153SOL    HW112610   9.341   3.781   7.909
 3153SOL    HW212611   9.302   3.820   8.050
 3153SOL     MW12612   9.338   3.763   7.995
 3154SOL     OW12613   3.689   1.136   2.400
 3154SOL    HW112614   3.610   1.189   2.412
 3154SOL    HW212615   3.757   1.200   2.381
 3154SOL     MW12616   3.687   1.151   2.400
 3155SOL     OW12617   4.506   3.920   3.444
 3155SOL    HW112618   4.454   3.848   3.481
 3155SOL    HW212619   4.548   3.960   3.520
 3155SOL     MW12620   4.505   3.916   3.458
 3156SOL     OW12621   6.066   9.547   3.286
 3156SOL    HW112622   6.006   9.494   3.232
 3156SOL    HW212623   6.040   9.528   3.376
 3156SOL     MW12624   6.055   9.538   3.291
 3157SOL     OW12625   9.251   1.260   7.892
 3157SOL    HW112626   9.251   1.231   7.801
 3157SOL    HW212627   9.330   1.314   7.899
 3157SOL     MW12628   9.261   1.263   7.881
 3158SOL     OW12629   8.442   1.330   4.193
 3158SOL    HW112630   8.365   1.386   4.201
 3158SOL    HW212631   8.418   1.249   4.238
 3158SOL     MW12632   8.429   1.327   4.199
 3159SOL     OW12633   3.142   8.857   8.222
 3159SOL    HW112634   3.046   8.856   8.226
 3159SOL    HW212635   3.162   8.900   8.139
 3159SOL     MW12636   3.132   8.862   8.212
 3160SOL     OW12637   8.263   3.195   8.978
 3160SOL    HW112638   8.191   3.134   8.961
 3160SOL    HW212639   8.230   3.280   8.949
 3160SOL     MW12640   8.249   3.198   8.972
 3161SOL     OW12641   3.734   4.254   3.173
 3161SOL    HW112642   3.643   4.234   3.192
 3161SOL    HW212643   3.730   4.332   3.117
 3161SOL     MW12644   3.722   4.262   3.168
 3162SOL     OW12645   3.207   1.738   9.713
 3162SOL    HW112646   3.248   1.796   9.777
 3162SOL    HW212647   3.262   1.747   9.635
 3162SOL     MW12648   3.220   1.747   9.711
 3163SOL     OW12649   8.657   5.821   7.210
 3163SOL    HW112650   8.752   5.830   7.198
 3163SOL    HW212651   8.648   5.774   7.293
 3163SOL     MW12652   8.668   5.816   7.219
 3164SOL     OW12653   7.571   5.708   9.276
 3164SOL    HW112654   7.514   5.708   9.199
 3164SOL    HW212655   7.532   5.645   9.336
 3164SOL     MW12656   7.559   5.700   9.274
 3165SOL     OW12657   4.237   0.883   9.257
 3165SOL    HW112658   4.328   0.876   9.229
 3165SOL    HW212659   4.241   0.934   9.338
 3165SOL     MW12660   4.249   0.889   9.264
 3166SOL     OW12661   4.046   4.805   0.347
 3166SOL    HW112662   4.074   4.773   0.433
 3166SOL    HW212663   3.977   4.745   0.320
 3166SOL     MW12664   4.041   4.794   0.355
 3167SOL     OW12665   6.573   0.329   5.150
 3167SOL    HW112666   6.563   0.370   5.236
 3167SOL    HW212667   6.521   0.385   5.091
 3167SOL     MW12668   6.565   0.342   5.153
 3168SOL     OW12669   2.913   1.867   6.386
 3168SOL    HW112670   2.851   1.880   6.458
 3168SOL    HW212671   2.921   1.772   6.379
 3168SOL     MW12672   2.906   1.857   6.395
 3169SOL     OW12673   6.600   8.118   6.274
 3169SOL    HW112674   6.591   8.035   6.227
 3169SOL    HW212675   6.589   8.185   6.206
 3169SOL     MW12676   6.597   8.116   6.259
 3170SOL     OW12677   1.045   0.652   9.590
 3170SOL    HW112678   1.044   0.612   9.503
 3170SOL    HW212679   0.953   0.656   9.616
 3170SOL     MW12680   1.033   0.648   9.582
 3171SOL     OW12681   8.928   5.836   7.190
 3171SOL    HW112682   8.995   5.782   7.148
 3171SOL    HW212683   8.958   5.845   7.281
 3171SOL     MW12684   8.940   5.830   7.196
 3172SOL     OW12685   5.847   1.100   3.422
 3172SOL    HW112686   5.902   1.177   3.413
 3172SOL    HW212687   5.898   1.029   3.383
 3172SOL     MW12688   5.860   1.101   3.416
 3173SOL     OW12689   1.003   1.865   2.123
 3173SOL    HW112690   1.032   1.868   2.032
 3173SOL    HW212691   0.979   1.773   2.137
 3173SOL     MW12692   1.004   1.854   2.113
 3174SOL     OW12693   1.225   9.236   4.551
 3174SOL    HW112694   1.182   9.211   4.633
 3174SOL    HW212695   1.257   9.325   4.567
 3174SOL     MW12696   1.224   9.244   4.564
 3175SOL     OW12697   0.896   3.709   3.671
 3175SOL    HW112698   0.822   3.662   3.708
 3175SOL    HW212699   0.866   3.799   3.662
 3175SOL     MW12700   0.883   3.715   3.675
 3176SOL     OW12701   3.017   9.388   2.037
 3176SOL    HW112702   2.973   9.406   1.954
 3176SOL    HW212703   3.088   9.452   2.041
 3176SOL     MW12704   3.020   9.399   2.027
 3177SOL     OW12705   5.723   7.469   0.927
 3177SOL    HW112706   5.753   7.552   0.892
 3177SOL    HW212707   5.783   7.404   0.890
 3177SOL     MW12708   5.734   7.471   0.917
 3178SOL     OW12709   3.863   7.159   7.209
 3178SOL    HW112710   3.835   7.070   7.187
 3178SOL    HW212711   3.861   7.162   7.305
 3178SOL     MW12712   3.859   7.148   7.218
 3179SOL     OW12713   1.668   8.532   5.689
 3179SOL    HW112714   1.697   8.622   5.674
 3179SOL    HW212715   1.579   8.529   5.653
 3179SOL     MW12716   1.660   8.543   5.683
 3180SOL     OW12717   1.304   8.708   2.173
 3180SOL    HW112718   1.381   8.651   2.171
 3180SOL    HW212719   1.264   8.698   2.087
 3180SOL     MW12720   1.308   8.699   2.162
 3181SOL     OW12721   9.954   4.590   6.989
 3181SOL    HW112722  10.019   4.606   7.057
 3181SOL    HW212723   9.993   4.626   6.909
 3181SOL     MW12724   9.967   4.597   6.987
 3182SOL     OW12725   4.435   2.784  10.084
 3182SOL    HW112726   4.491   2.826  10.150
 3182SOL    HW212727   4.417   2.852  10.020
 3182SOL     MW12728   4.440   2.798  10.085
 3183SOL     OW12729   0.830   6.923   6.258
 3183SOL    HW112730   0.812   6.888   6.171
 3183SOL    HW212731   0.745   6.927   6.301
 3183SOL     MW12732   0.817   6.919   6.253
 3184SOL     OW12733   4.511   7.323   1.561
 3184SOL    HW112734   4.436   7.359   1.513
 3184SOL    HW212735   4.508   7.367   1.646
 3184SOL     MW12736   4.501   7.333   1.566
 3185SOL     OW12737   9.283   2.648   3.650
 3185SOL    HW112738   9.247   2.694   3.726
 3185SOL    HW212739   9.279   2.555   3.675
 3185SOL     MW12740   9.278   2.642   3.663
 3186SOL     OW12741   4.831   2.942   0.154
 3186SOL    HW112742   4.884   3.003   0.206
 3186SOL    HW212743   4.884   2.863   0.146
 3186SOL     MW12744   4.844   2.940   0.160
 3187SOL     OW12745   1.766   3.038   5.503
 3187SOL    HW112746   1.832   3.104   5.523
 3187SOL    HW212747   1.726   3.067   5.422
 3187SOL     MW12748   1.770   3.050   5.495
 3188SOL     OW12749   8.322   5.001   4.228
 3188SOL    HW112750   8.347   5.091   4.204
 3188SOL    HW212751   8.386   4.946   4.182
 3188SOL     MW12752   8.334   5.006   4.219
 3189SOL     OW12753   5.663   0.019   4.513
 3189SOL    HW112754   5.667   0.104   4.470
 3189SOL    HW212755   5.681  -0.044   4.443
 3189SOL     MW12756   5.666   0.022   4.498
 3190SOL     OW12757   7.638   3.142   8.552
 3190SOL    HW112758   7.685   3.191   8.619
 3190SOL    HW212759   7.591   3.209   8.501
 3190SOL     MW12760   7.638   3.157   8.554
 3191SOL     OW12761   8.944   1.108   6.208
 3191SOL    HW112762   8.934   1.054   6.286
 3191SOL    HW212763   8.916   1.052   6.135
 3191SOL     MW12764   8.939   1.094   6.208
 3192SOL     OW12765   9.025   6.249   1.808
 3192SOL    HW112766   9.042   6.188   1.737
 3192SOL    HW212767   9.102   6.241   1.865
 3192SOL     MW12768   9.037   6.241   1.807
 3193SOL     OW12769   5.080   4.801   9.707
 3193SOL    HW112770   5.169   4.768   9.714
 3193SOL    HW212771   5.031   4.753   9.774
 3193SOL     MW12772   5.085   4.791   9.717
 3194SOL     OW12773   9.446   2.407   7.368
 3194SOL    HW112774   9.419   2.330   7.317
 3194SOL    HW212775   9.429   2.383   7.459
 3194SOL     MW12776   9.440   2.394   7.373
 3195SOL     OW12777   2.259   1.458   2.408
 3195SOL    HW112778   2.175   1.419   2.384
 3195SOL    HW212779   2.277   1.424   2.496
 3195SOL     MW12780   2.251   1.449   2.416
 3196SOL     OW12781   2.582   7.124   0.764
 3196SOL    HW112782   2.664   7.097   0.721
 3196SOL    HW212783   2.590   7.089   0.853
 3196SOL     MW12784   2.594   7.116   0.770
 3197SOL     OW12785   7.423   7.780   5.405
 3197SOL    HW112786   7.463   7.862   5.431
 3197SOL    HW212787   7.454   7.716   5.469
 3197SOL     MW12788   7.432   7.782   5.416
 3198SOL     OW12789   5.604   5.204   0.121
 3198SOL    HW112790   5.621   5.221   0.029
 3198SOL    HW212791   5.581   5.111   0.124
 3198SOL     MW12792   5.603   5.194   0.110
 3199SOL     OW12793   6.141   6.071   3.554
 3199SOL    HW112794   6.106   6.075   3.643
 3199SOL    HW212795   6.096   6.141   3.507
 3199SOL     MW12796   6.131   6.081   3.560
 3200SOL     OW12797   6.115   8.221   3.610
 3200SOL    HW112798   6.030   8.186   3.584
 3200SOL    HW212799   6.111   8.225   3.706
 3200SOL     MW12800   6.104   8.217   3.619
 3201SOL     OW12801   9.495   0.150   4.023
 3201SOL    HW112802   9.426   0.190   3.970
 3201SOL    HW212803   9.479   0.182   4.112
 3201SOL     MW12804   9.485   0.159   4.028
 3202SOL     OW12805   5.649   1.600   0.253
 3202SOL    HW112806   5.680   1.676   0.302
 3202SOL    HW212807   5.664   1.525   0.312
 3202SOL     MW12808   5.655   1.600   0.267
 3203SOL     OW12809   7.089   6.738   7.557
 3203SOL    HW112810   7.055   6.792   7.628
 3203SOL    HW212811   7.177   6.715   7.585
 3203SOL     MW12812   7.096   6.742   7.570
 3204SOL     OW12813   0.853   5.186   8.250
 3204SOL    HW112814   0.895   5.101   8.268
 3204SOL    HW212815   0.789   5.167   8.182
 3204SOL     MW12816   0.851   5.173   8.244
 3205SOL     OW12817   6.348   2.311   2.828
 3205SOL    HW112818   6.399   2.230   2.835
 3205SOL    HW212819   6.413   2.378   2.807
 3205SOL     MW12820   6.363   2.309   2.826
 3206SOL     OW12821   5.678   1.957   2.901
 3206SOL    HW112822   5.584   1.942   2.913
 3206SOL    HW212823   5.688   2.051   2.908
 3206SOL     MW12824   5.667   1.967   2.903
 3207SOL     OW12825   8.505   8.769   1.450
 3207SOL    HW112826   8.482   8.781   1.358
 3207SOL    HW212827   8.596   8.798   1.456
 3207SOL     MW12828   8.514   8.775   1.439
 3208SOL     OW12829   7.298   2.213   8.991
 3208SOL    HW112830   7.238   2.220   8.916
 3208SOL    HW212831   7.336   2.301   8.999
 3208SOL     MW12832   7.295   2.225   8.982
 3209SOL     OW12833   8.313   4.441   6.632
 3209SOL    HW112834   8.332   4.368   6.573
 3209SOL    HW212835   8.261   4.502   6.580
 3209SOL     MW12836   8.309   4.440   6.618
 3210SOL     OW12837   8.734   7.218   6.977
 3210SOL    HW112838   8.803   7.276   7.009
 3210SOL    HW212839   8.781   7.144   6.939
 3210SOL     MW12840   8.749   7.216   6.976
 3211SOL     OW12841   0.107   2.130   5.133
 3211SOL    HW112842   0.024   2.175   5.119
 3211SOL    HW212843   0.145   2.120   5.046
 3211SOL     MW12844   0.101   2.134   5.120
 3212SOL     OW12845   6.307   4.096   1.872
 3212SOL    HW112846   6.334   4.077   1.962
 3212SOL    HW212847   6.388   4.123   1.828
 3212SOL     MW12848   6.321   4.097   1.878
 3213SOL     OW12849   9.096   0.995   8.157
 3213SOL    HW112850   9.068   1.084   8.139
 3213SOL    HW212851   9.044   0.967   8.232
 3213SOL     MW12852   9.086   1.002   8.164
 3214SOL     OW12853   4.610   9.646   0.603
 3214SOL    HW112854   4.517   9.662   0.620
 3214SOL    HW212855   4.618   9.651   0.508
 3214SOL     MW12856   4.599   9.649   0.593
 3215SOL     OW12857   8.556   0.874   5.202
 3215SOL    HW112858   8.596   0.897   5.118
 3215SOL    HW212859   8.623   0.896   5.267
 3215SOL     MW12860   8.570   0.879   5.200
 3216SOL     OW12861   6.416   1.173   9.782
 3216SOL    HW112862   6.400   1.267   9.793
 3216SOL    HW212863   6.487   1.154   9.844
 3216SOL     MW12864   6.423   1.183   9.791
 3217SOL     OW12865   5.443   3.068   5.450
 3217SOL    HW112866   5.412   3.027   5.532
 3217SOL    HW212867   5.483   2.995   5.402
 3217SOL     MW12868   5.444   3.053   5.455
 3218SOL     OW12869   0.361  10.047   5.149
 3218SOL    HW112870   0.345  10.082   5.237
 3218SOL    HW212871   0.444  10.001   5.157
 3218SOL     MW12872   0.369  10.045   5.162
 3219SOL     OW12873   9.682   9.259   1.729
 3219SOL    HW112874   9.746   9.205   1.775
 3219SOL    HW212875   9.705   9.349   1.753
 3219SOL     MW12876   9.693   9.264   1.738
 3220SOL     OW12877   0.526   2.746   7.187
 3220SOL    HW112878   0.522   2.696   7.105
 3220SOL    HW212879   0.619   2.756   7.205
 3220SOL     MW12880   0.537   2.741   7.179
 3221SOL     OW12881   0.227  10.000   6.374
 3221SOL    HW112882   0.180   9.993   6.457
 3221SOL    HW212883   0.206   9.919   6.328
 3221SOL     MW12884   0.218   9.989   6.379
 3222SOL     OW12885  10.062   6.197   4.399
 3222SOL    HW112886  10.100   6.148   4.472
 3222SOL    HW212887  10.066   6.288   4.427
 3222SOL     MW12888  10.068   6.202   4.412
 3223SOL     OW12889   8.096   5.160   7.590
 3223SOL    HW112890   8.165   5.094   7.584
 3223SOL    HW212891   8.019   5.112   7.620
 3223SOL     MW12892   8.095   5.146   7.593
 3224SOL     OW12893   0.167   4.379   5.302
 3224SOL    HW112894   0.126   4.427   5.230
 3224SOL    HW212895   0.190   4.448   5.365
 3224SOL     MW12896   0.165   4.394   5.301
 3225SOL     OW12897   4.014   4.663   5.025
 3225SOL    HW112898   4.038   4.744   4.980
 3225SOL    HW212899   3.947   4.623   4.969
 3225SOL     MW12900   4.008   4.668   5.012
 3226SOL     OW12901   1.081   0.564   9.331
 3226SOL    HW112902   1.152   0.620   9.301
 3226SOL    HW212903   1.085   0.487   9.273
 3226SOL     MW12904   1.090   0.561   9.319
 3227SOL     OW12905   1.673   9.548   3.842
 3227SOL    HW112906   1.645   9.461   3.814
 3227SOL    HW212907   1.731   9.531   3.917
 3227SOL     MW12908   1.677   9.535   3.848
 3228SOL     OW12909   3.213   9.620   9.099
 3228SOL    HW112910   3.301   9.637   9.132
 3228SOL    HW212911   3.198   9.527   9.117
 3228SOL     MW12912   3.222   9.611   9.106
 3229SOL     OW12913   7.553   0.015   0.261
 3229SOL    HW112914   7.529  -0.032   0.341
 3229SOL    HW212915   7.608   0.087   0.293
 3229SOL     MW12916   7.557   0.018   0.276
 3230SOL     OW12917   3.920   6.852   6.302
 3230SOL    HW112918   3.998   6.898   6.333
 3230SOL    HW212919   3.870   6.919   6.255
 3230SOL     MW12920   3.924   6.867   6.300
 3231SOL     OW12921   3.406   9.560   1.037
 3231SOL    HW112922   3.357   9.609   1.103
 3231SOL    HW212923   3.339   9.529   0.976
 3231SOL     MW12924   3.391   9.563   1.038
 3232SOL     OW12925   6.826   6.585   6.115
 3232SOL    HW112926   6.762   6.560   6.048
 3232SOL    HW212927   6.874   6.505   6.134
 3232SOL     MW12928   6.824   6.572   6.109
 3233SOL     OW12929   1.766   9.391   5.888
 3233SOL    HW112930   1.744   9.484   5.882
 3233SOL    HW212931   1.715   9.349   5.819
 3233SOL     MW12932   1.757   9.398   5.879
 3234SOL     OW12933   3.701   9.949   0.905
 3234SOL    HW112934   3.766   9.946   0.975
 3234SOL    HW212935   3.663   9.861   0.903
 3234SOL     MW12936   3.705   9.937   0.913
 3235SOL     OW12937   9.766   0.832   9.649
 3235SOL    HW112938   9.818   0.907   9.678
 3235SOL    HW212939   9.803   0.809   9.564
 3235SOL     MW12940   9.778   0.839   9.642
 3236SOL     OW12941   3.848   4.637   0.257
 3236SOL    HW112942   3.763   4.665   0.290
 3236SOL    HW212943   3.841   4.643   0.162
 3236SOL     MW12944   3.836   4.641   0.249
 3237SOL     OW12945   1.453   7.006   4.251
 3237SOL    HW112946   1.473   7.087   4.298
 3237SOL    HW212947   1.515   6.942   4.286
 3237SOL     MW12948   1.463   7.008   4.262
 3238SOL     OW12949   9.833   5.335   6.581
 3238SOL    HW112950   9.838   5.373   6.669
 3238SOL    HW212951   9.740   5.323   6.565
 3238SOL     MW12952   9.822   5.339   6.590
 3239SOL     OW12953   0.861   4.640   0.802
 3239SOL    HW112954   0.918   4.608   0.732
 3239SOL    HW212955   0.920   4.684   0.863
 3239SOL     MW12956   0.876   4.642   0.801
 3240SOL     OW12957   4.866   0.941   2.802
 3240SOL    HW112958   4.781   0.948   2.759
 3240SOL    HW212959   4.864   0.857   2.847
 3240SOL     MW12960   4.855   0.931   2.802
 3241SOL     OW12961  10.016   2.484   8.824
 3241SOL    HW112962   9.990   2.452   8.738
 3241SOL    HW212963   9.969   2.429   8.886
 3241SOL     MW12964  10.007   2.473   8.821
 3242SOL     OW12965  10.153   6.631   3.309
 3242SOL    HW112966  10.161   6.718   3.349
 3242SOL    HW212967  10.059   6.623   3.289
 3242SOL     MW12968  10.142   6.641   3.312
 3243SOL     OW12969   7.918   1.790   4.339
 3243SOL    HW112970   7.838   1.769   4.290
 3243SOL    HW212971   7.892   1.860   4.399
 3243SOL     MW12972   7.904   1.796   4.340
 3244SOL     OW12973   9.266   1.860   6.663
 3244SOL    HW112974   9.186   1.878   6.614
 3244SOL    HW212975   9.235   1.839   6.752
 3244SOL     MW12976   9.252   1.859   6.668
 3245SOL     OW12977   2.353   6.721   6.120
 3245SOL    HW112978   2.394   6.806   6.106
 3245SOL    HW212979   2.401   6.662   6.061
 3245SOL     MW12980   2.365   6.724   6.111
 3246SOL     OW12981   0.969   7.824   4.243
 3246SOL    HW112982   1.054   7.863   4.226
 3246SOL    HW212983   0.920   7.892   4.291
 3246SOL     MW12984   0.973   7.838   4.247
 3247SOL     OW12985   6.058   0.525   2.205
 3247SOL    HW112986   6.004   0.554   2.131
 3247SOL    HW212987   6.125   0.469   2.165
 3247SOL     MW12988   6.060   0.521   2.190
 3248SOL     OW12989   9.022   5.649   3.713
 3248SOL    HW112990   9.024   5.565   3.668
 3248SOL    HW212991   9.007   5.713   3.644
 3248SOL     MW12992   9.020   5.646   3.698
 3249SOL     OW12993   8.660   4.685   6.979
 3249SOL    HW112994   8.613   4.640   6.909
 3249SOL    HW212995   8.590   4.720   7.036
 3249SOL     MW12996   8.645   4.684   6.978
 3250SOL     OW12997   8.983   2.079   3.482
 3250SOL    HW112998   8.949   2.021   3.415
 3250SOL    HW212999   9.041   2.139   3.435
 3250SOL     MW13000   8.986   2.080   3.468
 3251SOL     OW13001   5.440   7.756   3.987
 3251SOL    HW113002   5.471   7.709   4.064
 3251SOL    HW213003   5.349   7.726   3.976
 3251SOL     MW13004   5.432   7.746   3.996
 3252SOL     OW13005   0.775   9.423   8.705
 3252SOL    HW113006   0.777   9.445   8.798
 3252SOL    HW213007   0.830   9.345   8.697
 3252SOL     MW13008   0.782   9.416   8.716
 3253SOL     OW13009   5.828   0.075   7.179
 3253SOL    HW113010   5.817   0.162   7.141
 3253SOL    HW213011   5.881   0.089   7.258
 3253SOL     MW13012   5.833   0.088   7.185
 3254SOL     OW13013   9.749   3.872   9.206
 3254SOL    HW113014   9.770   3.962   9.234
 3254SOL    HW213015   9.806   3.857   9.131
 3254SOL     MW13016   9.759   3.882   9.200
 3255SOL     OW13017   3.898   1.445   3.192
 3255SOL    HW113018   3.929   1.444   3.283
 3255SOL    HW213019   3.888   1.352   3.170
 3255SOL     MW13020   3.901   1.433   3.201
 3256SOL     OW13021   4.999   4.065   0.378
 3256SOL    HW113022   4.958   4.017   0.449
 3256SOL    HW213023   5.032   3.998   0.318
 3256SOL     MW13024   4.998   4.050   0.379
 3257SOL     OW13025   3.868   6.721   5.405
 3257SOL    HW113026   3.776   6.699   5.423
 3257SOL    HW213027   3.866   6.812   5.376
 3257SOL     MW13028   3.856   6.730   5.404
 3258SOL     OW13029   2.263   5.691   2.743
 3258SOL    HW113030   2.317   5.652   2.812
 3258SOL    HW213031   2.296   5.780   2.734
 3258SOL     MW13032   2.274   5.697   2.751
 3259SOL     OW13033   4.059   3.088   7.887
 3259SOL    HW113034   3.991   3.152   7.866
 3259SOL    HW213035   4.014   3.004   7.887
 3259SOL     MW13036   4.045   3.085   7.884
 3260SOL     OW13037   7.798   7.678   6.143
 3260SOL    HW113038   7.827   7.617   6.075
 3260SOL    HW213039   7.758   7.751   6.095
 3260SOL     MW13040   7.797   7.680   6.128
 3261SOL     OW13041   8.113   4.299   3.377
 3261SOL    HW113042   8.083   4.260   3.460
 3261SOL    HW213043   8.200   4.262   3.364
 3261SOL     MW13044   8.120   4.289   3.386
 3262SOL     OW13045   8.533   8.665   9.726
 3262SOL    HW113046   8.540   8.758   9.705
 3262SOL    HW213047   8.510   8.623   9.643
 3262SOL     MW13048   8.531   8.671   9.713
 3263SOL     OW13049   6.376   0.626   5.228
 3263SOL    HW113050   6.394   0.716   5.254
 3263SOL    HW213051   6.433   0.573   5.285
 3263SOL     MW13052   6.386   0.631   5.239
 3264SOL     OW13053   4.373   6.257   6.859
 3264SOL    HW113054   4.321   6.278   6.781
 3264SOL    HW213055   4.450   6.211   6.825
 3264SOL     MW13056   4.376   6.254   6.844
 3265SOL     OW13057   6.478   7.225   3.874
 3265SOL    HW113058   6.440   7.180   3.949
 3265SOL    HW213059   6.484   7.157   3.806
 3265SOL     MW13060   6.474   7.210   3.875
 3266SOL     OW13061   8.538   4.672   9.961
 3266SOL    HW113062   8.477   4.687  10.033
 3266SOL    HW213063   8.586   4.755   9.953
 3266SOL     MW13064   8.536   4.685   9.969
 3267SOL     OW13065   8.887   0.738   0.036
 3267SOL    HW113066   8.939   0.712  -0.039
 3267SOL    HW213067   8.910   0.830   0.051
 3267SOL     MW13068   8.896   0.747   0.028
 3268SOL     OW13069   7.354   7.280   0.501
 3268SOL    HW113070   7.300   7.210   0.538
 3268SOL    HW213071   7.425   7.234   0.457
 3268SOL     MW13072   7.356   7.265   0.500
 3269SOL     OW13073   2.255   2.148   3.117
 3269SOL    HW113074   2.225   2.193   3.196
 3269SOL    HW213075   2.176   2.131   3.067
 3269SOL     MW13076   2.241   2.152   3.121
 3270SOL     OW13077   9.204   6.482   6.548
 3270SOL    HW113078   9.295   6.458   6.569
 3270SOL    HW213079   9.180   6.544   6.618
 3270SOL     MW13080   9.213   6.487   6.560
 3271SOL     OW13081   3.640   6.584   8.838
 3271SOL    HW113082   3.650   6.647   8.767
 3271SOL    HW213083   3.703   6.515   8.818
 3271SOL     MW13084   3.649   6.584   8.827
 3272SOL     OW13085   0.107   3.486   1.534
 3272SOL    HW113086   0.039   3.552   1.549
 3272SOL    HW213087   0.164   3.526   1.468
 3272SOL     MW13088   0.105   3.500   1.527
 3273SOL     OW13089   1.418   0.356   4.291
 3273SOL    HW113090   1.502   0.328   4.329
 3273SOL    HW213091   1.352   0.309   4.342
 3273SOL     MW13092   1.421   0.346   4.303
 3274SOL     OW13093   2.850   9.580   7.947
 3274SOL    HW113094   2.861   9.624   7.863
 3274SOL    HW213095   2.868   9.488   7.929
 3274SOL     MW13096   2.854   9.574   7.934
 3275SOL     OW13097   6.753   6.900   2.131
 3275SOL    HW113098   6.704   6.852   2.064
 3275SOL    HW213099   6.694   6.972   2.156
 3275SOL     MW13100   6.739   6.903   2.126
 3276SOL     OW13101   5.316  10.026   4.763
 3276SOL    HW113102   5.410  10.045   4.755
 3276SOL    HW213103   5.311   9.957   4.829
 3276SOL     MW13104   5.327  10.020   4.771
 3277SOL     OW13105   0.068   6.189   7.287
 3277SOL    HW113106   0.027   6.103   7.282
 3277SOL    HW213107   0.073   6.208   7.381
 3277SOL     MW13108   0.063   6.180   7.299
 3278SOL     OW13109   2.955   4.043   9.024
 3278SOL    HW113110   2.937   3.987   9.100
 3278SOL    HW213111   2.934   3.988   8.948
 3278SOL     MW13112   2.950   4.029   9.024
 3279SOL     OW13113   3.097   7.180   6.410
 3279SOL    HW113114   3.157   7.135   6.350
 3279SOL    HW213115   3.151   7.246   6.452
 3279SOL     MW13116   3.112   7.183   6.407
 3280SOL     OW13117   3.732   7.487   3.779
 3280SOL    HW113118   3.754   7.482   3.873
 3280SOL    HW213119   3.637   7.481   3.776
 3280SOL     MW13120   3.723   7.486   3.791
 3281SOL     OW13121   1.761   8.930   5.878
 3281SOL    HW113122   1.740   9.008   5.930
 3281SOL    HW213123   1.806   8.873   5.940
 3281SOL     MW13124   1.764   8.933   5.893
 3282SOL     OW13125   6.696  10.064   4.394
 3282SOL    HW113126   6.698  10.104   4.481
 3282SOL    HW213127   6.697   9.970   4.412
 3282SOL     MW13128   6.696  10.057   4.408
 3283SOL     OW13129   5.970   9.624   9.055
 3283SOL    HW113130   6.005   9.553   9.001
 3283SOL    HW213131   5.945   9.582   9.137
 3283SOL     MW13132   5.971   9.610   9.058
 3284SOL     OW13133   7.761   9.924   9.095
 3284SOL    HW113134   7.856   9.918   9.104
 3284SOL    HW213135   7.727   9.860   9.157
 3284SOL     MW13136   7.769   9.915   9.104
 3285SOL     OW13137   9.463   2.470   5.875
 3285SOL    HW113138   9.394   2.533   5.896
 3285SOL    HW213139   9.471   2.473   5.780
 3285SOL     MW13140   9.455   2.478   5.866
 3286SOL     OW13141   1.938   8.045   6.147
 3286SOL    HW113142   2.003   7.996   6.097
 3286SOL    HW213143   1.978   8.131   6.160
 3286SOL     MW13144   1.951   8.050   6.142
 3287SOL     OW13145   2.265   3.319   2.978
 3287SOL    HW113146   2.169   3.312   2.985
 3287SOL    HW213147   2.295   3.315   3.068
 3287SOL     MW13148   2.256   3.318   2.990
 3288SOL     OW13149   1.888   6.939   2.795
 3288SOL    HW113150   1.880   7.027   2.757
 3288SOL    HW213151   1.913   6.955   2.886
 3288SOL     MW13152   1.890   6.953   2.802
 3289SOL     OW13153   0.939   9.204   8.695
 3289SOL    HW113154   0.917   9.119   8.657
 3289SOL    HW213155   1.034   9.209   8.687
 3289SOL     MW13156   0.948   9.193   8.689
 3290SOL     OW13157   1.719   0.341   5.323
 3290SOL    HW113158   1.802   0.388   5.328
 3290SOL    HW213159   1.707   0.301   5.409
 3290SOL     MW13160   1.728   0.342   5.334
 3291SOL     OW13161   2.261   3.282   4.755
 3291SOL    HW113162   2.225   3.370   4.768
 3291SOL    HW213163   2.348   3.296   4.718
 3291SOL     MW13164   2.267   3.295   4.752
 3292SOL     OW13165   2.066   3.592   3.775
 3292SOL    HW113166   2.069   3.684   3.802
 3292SOL    HW213167   2.010   3.592   3.697
 3292SOL     MW13168   2.059   3.604   3.768
 3293SOL     OW13169   2.083   4.203   0.436
 3293SOL    HW113170   2.036   4.283   0.416
 3293SOL    HW213171   2.114   4.215   0.526
 3293SOL     MW13172   2.081   4.214   0.445
 3294SOL     OW13173  10.124   3.698   2.949
 3294SOL    HW113174  10.173   3.780   2.960
 3294SOL    HW213175  10.144   3.649   3.029
 3294SOL     MW13176  10.133   3.702   2.961
 3295SOL     OW13177   6.323   8.795   0.849
 3295SOL    HW113178   6.298   8.725   0.789
 3295SOL    HW213179   6.314   8.756   0.937
 3295SOL     MW13180   6.319   8.781   0.853
 3296SOL     OW13181   3.364   5.821   1.281
 3296SOL    HW113182   3.374   5.731   1.311
 3296SOL    HW213183   3.270   5.834   1.271
 3296SOL     MW13184   3.354   5.811   1.284
 3297SOL     OW13185   2.243   0.831   4.673
 3297SOL    HW113186   2.183   0.832   4.747
 3297SOL    HW213187   2.187   0.834   4.595
 3297SOL     MW13188   2.228   0.832   4.672
 3298SOL     OW13189   4.879   8.577   2.444
 3298SOL    HW113190   4.914   8.572   2.355
 3298SOL    HW213191   4.955   8.599   2.498
 3298SOL     MW13192   4.894   8.579   2.440
 3299SOL     OW13193   7.639   3.400   6.560
 3299SOL    HW113194   7.722   3.365   6.591
 3299SOL    HW213195   7.581   3.324   6.553
 3299SOL     MW13196   7.642   3.386   6.563
 3300SOL     OW13197   4.396   5.716   6.069
 3300SOL    HW113198   4.322   5.743   6.123
 3300SOL    HW213199   4.449   5.795   6.058
 3300SOL     MW13200   4.393   5.729   6.075
 3301SOL     OW13201   5.439   2.790   9.018
 3301SOL    HW113202   5.506   2.750   8.961
 3301SOL    HW213203   5.477   2.787   9.105
 3301SOL     MW13204   5.452   2.785   9.022
 3302SOL     OW13205   3.885   7.868   1.070
 3302SOL    HW113206   3.804   7.848   1.118
 3302SOL    HW213207   3.861   7.940   1.012
 3302SOL     MW13208   3.871   7.875   1.069
 3303SOL     OW13209   4.656   8.822   4.284
 3303SOL    HW113210   4.563   8.829   4.265
 3303SOL    HW213211   4.664   8.844   4.377
 3303SOL     MW13212   4.645   8.825   4.293
 3304SOL     OW13213   8.909   9.107   3.376
 3304SOL    HW113214   8.981   9.146   3.326
 3304SOL    HW213215   8.833   9.161   3.354
 3304SOL     MW13216   8.909   9.119   3.367
 3305SOL     OW13217   5.059  10.096   0.404
 3305SOL    HW113218   5.037  10.003   0.392
 3305SOL    HW213219   5.020  10.120   0.488
 3305SOL     MW13220   5.051  10.087   0.413
 3306SOL     OW13221   7.731   6.321   4.230
 3306SOL    HW113222   7.728   6.395   4.170
 3306SOL    HW213223   7.713   6.359   4.316
 3306SOL     MW13224   7.729   6.335   4.233
 3307SOL     OW13225   4.604   4.119   2.996
 3307SOL    HW113226   4.551   4.108   3.075
 3307SOL    HW213227   4.667   4.047   2.998
 3307SOL     MW13228   4.605   4.109   3.006
 3308SOL     OW13229   3.645   2.475   3.738
 3308SOL    HW113230   3.629   2.542   3.671
 3308SOL    HW213231   3.740   2.464   3.739
 3308SOL     MW13232   3.655   2.482   3.729
 3309SOL     OW13233   9.971   8.567   3.736
 3309SOL    HW113234   9.882   8.595   3.714
 3309SOL    HW213235  10.023   8.647   3.727
 3309SOL     MW13236   9.966   8.581   3.732
 3310SOL     OW13237   7.246   5.770   2.334
 3310SOL    HW113238   7.325   5.783   2.387
 3310SOL    HW213239   7.211   5.859   2.321
 3310SOL     MW13240   7.252   5.783   2.339
 3311SOL     OW13241   9.398   7.356   2.722
 3311SOL    HW113242   9.454   7.313   2.657
 3311SOL    HW213243   9.459   7.390   2.787
 3311SOL     MW13244   9.413   7.355   2.722
 3312SOL     OW13245   2.530   8.995   8.976
 3312SOL    HW113246   2.531   9.017   8.883
 3312SOL    HW213247   2.544   8.901   8.979
 3312SOL     MW13248   2.532   8.986   8.965
 3313SOL     OW13249   3.380   3.598   5.194
 3313SOL    HW113250   3.370   3.670   5.256
 3313SOL    HW213251   3.459   3.552   5.224
 3313SOL     MW13252   3.389   3.601   5.206
 3314SOL     OW13253   9.227   5.864   1.679
 3314SOL    HW113254   9.284   5.861   1.602
 3314SOL    HW213255   9.192   5.776   1.687
 3314SOL     MW13256   9.230   5.853   1.670
 3315SOL     OW13257   6.833   7.273   9.843
 3315SOL    HW113258   6.790   7.346   9.799
 3315SOL    HW213259   6.808   7.283   9.935
 3315SOL     MW13260   6.824   7.283   9.850
 3316SOL     OW13261   5.525   4.148   8.157
 3316SOL    HW113262   5.462   4.210   8.194
 3316SOL    HW213263   5.606   4.198   8.150
 3316SOL     MW13264   5.527   4.162   8.161
 3317SOL     OW13265   5.582   3.345   7.822
 3317SOL    HW113266   5.611   3.304   7.903
 3317SOL    HW213267   5.507   3.400   7.847
 3317SOL     MW13268   5.576   3.347   7.835
 3318SOL     OW13269   6.078   3.990   5.764
 3318SOL    HW113270   6.046   4.046   5.834
 3318SOL    HW213271   6.000   3.955   5.722
 3318SOL     MW13272   6.064   3.993   5.768
 3319SOL     OW13273   6.995   2.679   6.409
 3319SOL    HW113274   7.034   2.707   6.326
 3319SOL    HW213275   6.952   2.758   6.443
 3319SOL     MW13276   6.994   2.693   6.403
 3320SOL     OW13277   6.897   9.285   0.195
 3320SOL    HW113278   6.925   9.365   0.151
 3320SOL    HW213279   6.960   9.219   0.167
 3320SOL     MW13280   6.908   9.287   0.186
 3321SOL     OW13281   4.277   8.113   7.083
 3321SOL    HW113282   4.345   8.048   7.101
 3321SOL    HW213283   4.319   8.177   7.026
 3321SOL     MW13284   4.291   8.113   7.078
 3322SOL     OW13285   4.819   7.641   9.989
 3322SOL    HW113286   4.849   7.731   9.983
 3322SOL    HW213287   4.741   7.645  10.045
 3322SOL     MW13288   4.813   7.653   9.995
 3323SOL     OW13289   4.573   7.628   3.177
 3323SOL    HW113290   4.634   7.701   3.165
 3323SOL    HW213291   4.486   7.668   3.172
 3323SOL     MW13292   4.570   7.642   3.175
 3324SOL     OW13293   4.881   3.214   3.582
 3324SOL    HW113294   4.839   3.294   3.613
 3324SOL    HW213295   4.854   3.207   3.491
 3324SOL     MW13296   4.872   3.223   3.575
 3325SOL     OW13297   6.212   3.114   1.054
 3325SOL    HW113298   6.291   3.067   1.082
 3325SOL    HW213299   6.179   3.062   0.980
 3325SOL     MW13300   6.218   3.101   1.048
 3326SOL     OW13301   8.594   7.734   9.256
 3326SOL    HW113302   8.613   7.827   9.268
 3326SOL    HW213303   8.677   7.690   9.271
 3326SOL     MW13304   8.607   7.740   9.259
 3327SOL     OW13305   9.063   7.132   2.625
 3327SOL    HW113306   9.117   7.146   2.702
 3327SOL    HW213307   9.013   7.213   2.616
 3327SOL     MW13308   9.064   7.144   2.633
 3328SOL     OW13309   6.801   9.348   0.452
 3328SOL    HW113310   6.828   9.326   0.362
 3328SOL    HW213311   6.855   9.292   0.507
 3328SOL     MW13312   6.812   9.338   0.447
 3329SOL     OW13313   1.323   8.086   9.693
 3329SOL    HW113314   1.245   8.033   9.677
 3329SOL    HW213315   1.291   8.176   9.689
 3329SOL     MW13316   1.309   8.091   9.690
 3330SOL     OW13317   0.598   3.528   5.123
 3330SOL    HW113318   0.514   3.515   5.168
 3330SOL    HW213319   0.584   3.604   5.067
 3330SOL     MW13320   0.585   3.536   5.122
 3331SOL     OW13321   9.737   6.699   7.999
 3331SOL    HW113322   9.754   6.785   8.038
 3331SOL    HW213323   9.705   6.646   8.072
 3331SOL     MW13324   9.735   6.703   8.013
 3332SOL     OW13325   2.689   9.057   0.798
 3332SOL    HW113326   2.760   8.992   0.798
 3332SOL    HW213327   2.620   9.017   0.850
 3332SOL     MW13328   2.689   9.043   0.804
 3333SOL     OW13329   0.319   7.618   9.668
 3333SOL    HW113330   0.304   7.533   9.626
 3333SOL    HW213331   0.293   7.682   9.602
 3333SOL     MW13332   0.314   7.615   9.654
 3334SOL     OW13333   7.200   8.606   1.969
 3334SOL    HW113334   7.259   8.681   1.967
 3334SOL    HW213335   7.249   8.536   1.926
 3334SOL     MW13336   7.214   8.607   1.963
 3335SOL     OW13337   1.475   1.386   6.598
 3335SOL    HW113338   1.444   1.453   6.660
 3335SOL    HW213339   1.416   1.312   6.612
 3335SOL     MW13340   1.463   1.385   6.608
 3336SOL     OW13341   3.375   6.430   3.076
 3336SOL    HW113342   3.448   6.472   3.120
 3336SOL    HW213343   3.411   6.346   3.045
 3336SOL     MW13344   3.389   6.424   3.078
 3337SOL     OW13345   2.996   8.513   2.499
 3337SOL    HW113346   3.057   8.519   2.573
 3337SOL    HW213347   2.944   8.435   2.518
 3337SOL     MW13348   2.997   8.504   2.511
 3338SOL     OW13349   2.274   4.196   1.853
 3338SOL    HW113350   2.309   4.160   1.934
 3338SOL    HW213351   2.182   4.216   1.873
 3338SOL     MW13352   2.266   4.194   1.866
 3339SOL     OW13353   1.663   2.929   8.500
 3339SOL    HW113354   1.644   2.976   8.419
 3339SOL    HW213355   1.758   2.937   8.511
 3339SOL     MW13356   1.672   2.936   8.491
 3340SOL     OW13357   4.107   7.819   5.225
 3340SOL    HW113358   4.111   7.914   5.234
 3340SOL    HW213359   4.162   7.800   5.149
 3340SOL     MW13360   4.115   7.829   5.217
 3341SOL     OW13361   8.100   1.053   8.307
 3341SOL    HW113362   8.037   0.991   8.271
 3341SOL    HW213363   8.136   1.098   8.230
 3341SOL     MW13364   8.096   1.051   8.292
 3342SOL     OW13365   1.920   2.835   1.491
 3342SOL    HW113366   1.883   2.770   1.551
 3342SOL    HW213367   1.853   2.903   1.486
 3342SOL     MW13368   1.907   2.836   1.498
 3343SOL     OW13369   0.941   5.954   5.739
 3343SOL    HW113370   0.849   5.933   5.727
 3343SOL    HW213371   0.972   5.889   5.803
 3343SOL     MW13372   0.933   5.943   5.746
 3344SOL     OW13373   3.952   2.634   8.807
 3344SOL    HW113374   4.033   2.608   8.851
 3344SOL    HW213375   3.953   2.729   8.810
 3344SOL     MW13376   3.963   2.642   8.813
 3345SOL     OW13377   1.005   2.012   9.399
 3345SOL    HW113378   1.071   2.015   9.468
 3345SOL    HW213379   0.922   2.006   9.446
 3345SOL     MW13380   1.003   2.011   9.414
 3346SOL     OW13381   3.927   7.765   6.752
 3346SOL    HW113382   3.909   7.709   6.827
 3346SOL    HW213383   3.846   7.762   6.701
 3346SOL     MW13384   3.914   7.757   6.755
 3347SOL     OW13385   7.572   0.449   4.907
 3347SOL    HW113386   7.609   0.362   4.922
 3347SOL    HW213387   7.484   0.445   4.944
 3347SOL     MW13388   7.566   0.438   4.913
 3348SOL     OW13389   4.453   1.022   9.685
 3348SOL    HW113390   4.526   0.993   9.740
 3348SOL    HW213391   4.446   1.116   9.701
 3348SOL     MW13392   4.462   1.030   9.694
 3349SOL     OW13393   5.152   5.202   0.224
 3349SOL    HW113394   5.088   5.252   0.275
 3349SOL    HW213395   5.237   5.240   0.247
 3349SOL     MW13396   5.155   5.213   0.234
 3350SOL     OW13397   8.164   9.171   1.778
 3350SOL    HW113398   8.096   9.211   1.723
 3350SOL    HW213399   8.117   9.108   1.833
 3350SOL     MW13400   8.149   9.168   1.778
 3351SOL     OW13401   1.725   4.002   6.562
 3351SOL    HW113402   1.768   4.083   6.532
 3351SOL    HW213403   1.780   3.932   6.526
 3351SOL     MW13404   1.738   4.004   6.553
 3352SOL     OW13405   6.969   6.865   7.789
 3352SOL    HW113406   7.039   6.880   7.853
 3352SOL    HW213407   6.904   6.931   7.809
 3352SOL     MW13408   6.970   6.875   7.800
 3353SOL     OW13409   1.785   2.639   3.369
 3353SOL    HW113410   1.692   2.616   3.374
 3353SOL    HW213411   1.803   2.682   3.453
 3353SOL     MW13412   1.775   2.642   3.380
 3354SOL     OW13413   9.072   1.706   2.815
 3354SOL    HW113414   9.024   1.786   2.794
 3354SOL    HW213415   9.010   1.635   2.796
 3354SOL     MW13416   9.058   1.707   2.810
 3355SOL     OW13417   2.599   7.453   3.714
 3355SOL    HW113418   2.553   7.485   3.637
 3355SOL    HW213419   2.569   7.510   3.785
 3355SOL     MW13420   2.589   7.465   3.713
 3356SOL     OW13421   5.200   3.889   7.680
 3356SOL    HW113422   5.239   3.953   7.619
 3356SOL    HW213423   5.191   3.809   7.628
 3356SOL     MW13424   5.204   3.887   7.665
 3357SOL     OW13425   2.786   8.254   5.512
 3357SOL    HW113426   2.750   8.171   5.482
 3357SOL    HW213427   2.757   8.318   5.447
 3357SOL     MW13428   2.778   8.252   5.500
 3358SOL     OW13429   8.859   0.514   5.567
 3358SOL    HW113430   8.949   0.546   5.568
 3358SOL    HW213431   8.857   0.443   5.631
 3358SOL     MW13432   8.870   0.509   5.575
 3359SOL     OW13433   3.830   4.938   1.387
 3359SOL    HW113434   3.920   4.940   1.355
 3359SOL    HW213435   3.814   4.845   1.405
 3359SOL     MW13436   3.840   4.926   1.385
 3360SOL     OW13437   2.761   6.777   6.810
 3360SOL    HW113438   2.731   6.697   6.767
 3360SOL    HW213439   2.718   6.776   6.895
 3360SOL     MW13440   2.752   6.767   6.816
 3361SOL     OW13441   5.893   4.122   1.137
 3361SOL    HW113442   5.798   4.133   1.127
 3361SOL    HW213443   5.904   4.095   1.229
 3361SOL     MW13444   5.882   4.120   1.148
 3362SOL     OW13445   0.640   7.241   4.829
 3362SOL    HW113446   0.663   7.326   4.792
 3362SOL    HW213447   0.722   7.193   4.833
 3362SOL     MW13448   0.653   7.246   4.825
 3363SOL     OW13449   0.351   9.775   8.419
 3363SOL    HW113450   0.344   9.680   8.407
 3363SOL    HW213451   0.260   9.805   8.426
 3363SOL     MW13452   0.338   9.767   8.418
 3364SOL     OW13453   7.583   4.839   8.015
 3364SOL    HW113454   7.491   4.837   7.990
 3364SOL    HW213455   7.598   4.754   8.058
 3364SOL     MW13456   7.573   4.828   8.018
 3365SOL     OW13457   0.836   3.583   7.090
 3365SOL    HW113458   0.744   3.593   7.112
 3365SOL    HW213459   0.843   3.619   7.002
 3365SOL     MW13460   0.825   3.589   7.081
 3366SOL     OW13461   3.663   8.844   4.546
 3366SOL    HW113462   3.595   8.880   4.489
 3366SOL    HW213463   3.730   8.811   4.485
 3366SOL     MW13464   3.663   8.844   4.531
 3367SOL     OW13465   8.873   4.973   5.303
 3367SOL    HW113466   8.804   4.910   5.322
 3367SOL    HW213467   8.890   4.962   5.209
 3367SOL     MW13468   8.866   4.963   5.293
 3368SOL     OW13469   2.545   7.590   0.564
 3368SOL    HW113470   2.638   7.613   0.563
 3368SOL    HW213471   2.544   7.495   0.577
 3368SOL     MW13472   2.557   7.580   0.565
 3369SOL     OW13473   7.593   3.526   4.623
 3369SOL    HW113474   7.598   3.597   4.686
 3369SOL    HW213475   7.504   3.530   4.588
 3369SOL     MW13476   7.582   3.535   4.626
 3370SOL     OW13477   3.107   5.431   9.568
 3370SOL    HW113478   3.138   5.475   9.489
 3370SOL    HW213479   3.012   5.438   9.563
 3370SOL     MW13480   3.099   5.437   9.557
 3371SOL     OW13481   4.475   3.565   9.196
 3371SOL    HW113482   4.385   3.594   9.180
 3371SOL    HW213483   4.501   3.521   9.116
 3371SOL     MW13484   4.467   3.563   9.184
 3372SOL     OW13485   3.097   4.703   6.213
 3372SOL    HW113486   3.065   4.755   6.139
 3372SOL    HW213487   3.047   4.621   6.208
 3372SOL     MW13488   3.087   4.699   6.203
 3373SOL     OW13489   5.871   9.808   6.684
 3373SOL    HW113490   5.820   9.836   6.761
 3373SOL    HW213491   5.897   9.890   6.642
 3373SOL     MW13492   5.868   9.822   6.689
 3374SOL     OW13493   7.214   8.884   5.904
 3374SOL    HW113494   7.125   8.910   5.931
 3374SOL    HW213495   7.205   8.862   5.811
 3374SOL     MW13496   7.201   8.884   5.896
 3375SOL     OW13497   2.164   5.697   1.091
 3375SOL    HW113498   2.234   5.723   1.030
 3375SOL    HW213499   2.162   5.601   1.086
 3375SOL     MW13500   2.173   5.688   1.082
 3376SOL     OW13501   1.430   8.525   4.705
 3376SOL    HW113502   1.421   8.466   4.780
 3376SOL    HW213503   1.342   8.559   4.690
 3376SOL     MW13504   1.418   8.522   4.712
 3377SOL     OW13505   5.176   8.674   9.419
 3377SOL    HW113506   5.201   8.612   9.488
 3377SOL    HW213507   5.081   8.667   9.413
 3377SOL     MW13508   5.167   8.665   9.427
 3378SOL     OW13509   7.261   2.916   5.007
 3378SOL    HW113510   7.348   2.891   5.038
 3378SOL    HW213511   7.241   2.996   5.055
 3378SOL     MW13512   7.270   2.923   5.017
 3379SOL     OW13513   2.191   2.293   3.340
 3379SOL    HW113514   2.267   2.350   3.327
 3379SOL    HW213515   2.118   2.354   3.353
 3379SOL     MW13516   2.191   2.308   3.340
 3380SOL     OW13517   5.487   3.928   5.653
 3380SOL    HW113518   5.433   3.852   5.630
 3380SOL    HW213519   5.567   3.890   5.690
 3380SOL     MW13520   5.490   3.913   5.655
 3381SOL     OW13521   2.742   6.996   6.641
 3381SOL    HW113522   2.648   6.997   6.628
 3381SOL    HW213523   2.757   6.924   6.703
 3381SOL     MW13524   2.732   6.987   6.647
 3382SOL     OW13525   0.095   2.819   4.589
 3382SOL    HW113526   0.026   2.801   4.525
 3382SOL    HW213527   0.167   2.854   4.536
 3382SOL     MW13528   0.096   2.821   4.574
 3383SOL     OW13529   8.638   6.116   6.815
 3383SOL    HW113530   8.636   6.168   6.895
 3383SOL    HW213531   8.729   6.089   6.807
 3383SOL     MW13532   8.649   6.119   6.824
 3384SOL     OW13533   9.098   6.856   2.591
 3384SOL    HW113534   9.033   6.804   2.638
 3384SOL    HW213535   9.067   6.946   2.600
 3384SOL     MW13536   9.086   6.861   2.598
 3385SOL     OW13537   6.157   0.639   2.428
 3385SOL    HW113538   6.126   0.595   2.349
 3385SOL    HW213539   6.077   0.663   2.476
 3385SOL     MW13540   6.143   0.636   2.424
 3386SOL     OW13541   3.940   4.308   9.055
 3386SOL    HW113542   3.966   4.312   8.963
 3386SOL    HW213543   3.846   4.327   9.054
 3386SOL     MW13544   3.931   4.311   9.043
 3387SOL     OW13545   2.385   2.303   8.037
 3387SOL    HW113546   2.296   2.272   8.056
 3387SOL    HW213547   2.372   2.392   8.004
 3387SOL     MW13548   2.372   2.311   8.035
 3388SOL     OW13549   7.516   7.603   5.596
 3388SOL    HW113550   7.473   7.518   5.599
 3388SOL    HW213551   7.599   7.590   5.643
 3388SOL     MW13552   7.521   7.591   5.603
 3389SOL     OW13553   2.472   4.086   5.418
 3389SOL    HW113554   2.547   4.146   5.422
 3389SOL    HW213555   2.478   4.035   5.498
 3389SOL     MW13556   2.483   4.087   5.429
 3390SOL     OW13557   0.888   8.537   2.325
 3390SOL    HW113558   0.816   8.481   2.354
 3390SOL    HW213559   0.935   8.560   2.405
 3390SOL     MW13560   0.885   8.533   2.339
 3391SOL     OW13561   0.494   3.344   1.699
 3391SOL    HW113562   0.468   3.280   1.634
 3391SOL    HW213563   0.561   3.300   1.751
 3391SOL     MW13564   0.499   3.330   1.698
 3392SOL     OW13565   6.201   3.047   6.090
 3392SOL    HW113566   6.168   2.961   6.114
 3392SOL    HW213567   6.197   3.049   5.994
 3392SOL     MW13568   6.196   3.037   6.081
 3393SOL     OW13569   6.949   1.678   0.261
 3393SOL    HW113570   7.031   1.722   0.286
 3393SOL    HW213571   6.941   1.693   0.167
 3393SOL     MW13572   6.959   1.685   0.252
 3394SOL     OW13573   1.302   4.930   3.517
 3394SOL    HW113574   1.313   4.867   3.446
 3394SOL    HW213575   1.357   4.895   3.588
 3394SOL     MW13576   1.311   4.918   3.517
 3395SOL     OW13577   4.459   7.875   3.067
 3395SOL    HW113578   4.553   7.888   3.082
 3395SOL    HW213579   4.421   7.963   3.077
 3395SOL     MW13580   4.466   7.888   3.070
 3396SOL     OW13581   4.535   8.221   6.537
 3396SOL    HW113582   4.522   8.137   6.493
 3396SOL    HW213583   4.508   8.286   6.472
 3396SOL     MW13584   4.530   8.219   6.523
 3397SOL     OW13585   0.103   5.554   8.162
 3397SOL    HW113586   0.141   5.639   8.141
 3397SOL    HW213587   0.169   5.512   8.218
 3397SOL     MW13588   0.117   5.559   8.167
 3398SOL     OW13589   1.036   9.145   0.605
 3398SOL    HW113590   1.091   9.222   0.618
 3398SOL    HW213591   1.086   9.088   0.547
 3398SOL     MW13592   1.049   9.148   0.599
 3399SOL     OW13593   9.746   8.693   7.328
 3399SOL    HW113594   9.840   8.701   7.311
 3399SOL    HW213595   9.704   8.734   7.253
 3399SOL     MW13596   9.752   8.700   7.316
 3400SOL     OW13597   0.052   2.966   9.071
 3400SOL    HW113598   0.087   2.877   9.063
 3400SOL    HW213599  -0.041   2.953   9.092
 3400SOL     MW13600   0.044   2.953   9.072
 3401SOL     OW13601   1.791   3.655   7.924
 3401SOL    HW113602   1.771   3.565   7.950
 3401SOL    HW213603   1.706   3.695   7.910
 3401SOL     MW13604   1.778   3.648   7.926
 3402SOL     OW13605   7.740   5.680   3.809
 3402SOL    HW113606   7.783   5.747   3.756
 3402SOL    HW213607   7.743   5.714   3.898
 3402SOL     MW13608   7.746   5.693   3.814
 3403SOL     OW13609   2.606   1.283   9.535
 3403SOL    HW113610   2.583   1.338   9.609
 3403SOL    HW213611   2.701   1.283   9.533
 3403SOL     MW13612   2.615   1.290   9.544
 3404SOL     OW13613   5.368   7.308   2.037
 3404SOL    HW113614   5.299   7.248   2.010
 3404SOL    HW213615   5.429   7.254   2.087
 3404SOL     MW13616   5.367   7.294   2.040
 3405SOL     OW13617   3.484   5.101   7.159
 3405SOL    HW113618   3.420   5.038   7.126
 3405SOL    HW213619   3.565   5.050   7.168
 3405SOL     MW13620   3.486   5.086   7.156
 3406SOL     OW13621   6.146   4.013   6.697
 3406SOL    HW113622   6.175   3.922   6.688
 3406SOL    HW213623   6.138   4.045   6.608
 3406SOL     MW13624   6.148   4.005   6.685
 3407SOL     OW13625   6.363   0.452   7.075
 3407SOL    HW113626   6.285   0.507   7.086
 3407SOL    HW213627   6.328   0.368   7.046
 3407SOL     MW13628   6.348   0.448   7.073
 3408SOL     OW13629   7.243   7.883   7.560
 3408SOL    HW113630   7.301   7.887   7.484
 3408SOL    HW213631   7.219   7.791   7.567
 3408SOL     MW13632   7.247   7.872   7.551
 3409SOL     OW13633   7.788   8.459   3.469
 3409SOL    HW113634   7.850   8.440   3.398
 3409SOL    HW213635   7.761   8.372   3.500
 3409SOL     MW13636   7.793   8.445   3.464
 3410SOL     OW13637   3.956   9.328   5.464
 3410SOL    HW113638   4.006   9.262   5.417
 3410SOL    HW213639   3.967   9.305   5.557
 3410SOL     MW13640   3.964   9.317   5.470
 3411SOL     OW13641   7.684   3.913   3.380
 3411SOL    HW113642   7.661   3.920   3.288
 3411SOL    HW213643   7.600   3.913   3.426
 3411SOL     MW13644   7.670   3.914   3.374
 3412SOL     OW13645   0.892   7.558   4.232
 3412SOL    HW113646   0.918   7.650   4.232
 3412SOL    HW213647   0.876   7.537   4.324
 3412SOL     MW13648   0.893   7.567   4.244
 3413SOL     OW13649   4.674   9.984   6.283
 3413SOL    HW113650   4.693  10.076   6.299
 3413SOL    HW213651   4.745   9.954   6.225
 3413SOL     MW13652   4.686   9.992   6.277
 3414SOL     OW13653   0.321   5.110   4.177
 3414SOL    HW113654   0.248   5.111   4.238
 3414SOL    HW213655   0.344   5.018   4.168
 3414SOL     MW13656   0.315   5.098   4.183
 3415SOL     OW13657   8.330   8.233   5.048
 3415SOL    HW113658   8.359   8.149   5.012
 3415SOL    HW213659   8.283   8.274   4.975
 3415SOL     MW13660   8.328   8.227   5.034
 3416SOL     OW13661   0.915   0.338   2.704
 3416SOL    HW113662   0.958   0.420   2.680
 3416SOL    HW213663   0.910   0.342   2.800
 3416SOL     MW13664   0.920   0.349   2.714
 3417SOL     OW13665   0.128   6.450   5.630
 3417SOL    HW113666   0.066   6.377   5.623
 3417SOL    HW213667   0.110   6.488   5.716
 3417SOL     MW13668   0.118   6.445   5.640
 3418SOL     OW13669   7.471   1.080   7.127
 3418SOL    HW113670   7.545   1.134   7.101
 3418SOL    HW213671   7.398   1.142   7.137
 3418SOL     MW13672   7.471   1.095   7.125
 3419SOL     OW13673   1.015   5.256   7.036
 3419SOL    HW113674   0.951   5.227   7.102
 3419SOL    HW213675   1.065   5.324   7.080
 3419SOL     MW13676   1.013   5.261   7.050
 3420SOL     OW13677   1.750   9.456   9.291
 3420SOL    HW113678   1.757   9.484   9.200
 3420SOL    HW213679   1.738   9.361   9.287
 3420SOL     MW13680   1.750   9.447   9.279
 3421SOL     OW13681   0.893   1.124   8.256
 3421SOL    HW113682   0.844   1.042   8.257
 3421SOL    HW213683   0.855   1.175   8.327
 3421SOL     MW13684   0.882   1.120   8.265
 3422SOL     OW13685   8.823   6.840   0.242
 3422SOL    HW113686   8.752   6.863   0.301
 3422SOL    HW213687   8.901   6.835   0.298
 3422SOL     MW13688   8.824   6.842   0.256
 3423SOL     OW13689   5.361   3.135   5.903
 3423SOL    HW113690   5.407   3.217   5.887
 3423SOL    HW213691   5.289   3.159   5.961
 3423SOL     MW13692   5.358   3.148   5.909
 3424SOL     OW13693   8.389   5.280   5.722
 3424SOL    HW113694   8.330   5.342   5.764
 3424SOL    HW213695   8.430   5.330   5.651
 3424SOL     MW13696   8.387   5.294   5.718
 3425SOL     OW13697   9.971   1.723   1.058
 3425SOL    HW113698  10.042   1.787   1.069
 3425SOL    HW213699   9.976   1.699   0.965
 3425SOL     MW13700   9.981   1.728   1.047
 3426SOL     OW13701   3.025   1.173   3.871
 3426SOL    HW113702   2.949   1.149   3.818
 3426SOL    HW213703   2.991   1.238   3.933
 3426SOL     MW13704   3.011   1.178   3.872
 3427SOL     OW13705   6.788   1.604   6.087
 3427SOL    HW113706   6.723   1.549   6.043
 3427SOL    HW213707   6.738   1.652   6.153
 3427SOL     MW13708   6.773   1.603   6.090
 3428SOL     OW13709   1.330   8.317   6.846
 3428SOL    HW113710   1.298   8.250   6.786
 3428SOL    HW213711   1.364   8.268   6.921
 3428SOL     MW13712   1.330   8.302   6.848
 3429SOL     OW13713   1.637   1.810   7.734
 3429SOL    HW113714   1.717   1.855   7.707
 3429SOL    HW213715   1.667   1.730   7.778
 3429SOL     MW13716   1.651   1.806   7.736
 3430SOL     OW13717   8.615   0.639   5.531
 3430SOL    HW113718   8.701   0.598   5.543
 3430SOL    HW213719   8.593   0.622   5.439
 3430SOL     MW13720   8.624   0.632   5.521
 3431SOL     OW13721   1.177   6.559   0.234
 3431SOL    HW113722   1.229   6.630   0.197
 3431SOL    HW213723   1.154   6.504   0.159
 3431SOL     MW13724   1.181   6.561   0.220
 3432SOL     OW13725   3.342   2.691   3.804
 3432SOL    HW113726   3.361   2.646   3.887
 3432SOL    HW213727   3.250   2.715   3.810
 3432SOL     MW13728   3.333   2.688   3.816
 3433SOL     OW13729   5.192   0.452   3.391
 3433SOL    HW113730   5.248   0.484   3.320
 3433SOL    HW213731   5.251   0.399   3.445
 3433SOL     MW13732   5.207   0.449   3.389
 3434SOL     OW13733   7.945   3.468   5.608
 3434SOL    HW113734   7.976   3.420   5.531
 3434SOL    HW213735   7.924   3.400   5.672
 3434SOL     MW13736   7.946   3.453   5.606
 3435SOL     OW13737   2.455   0.234   8.324
 3435SOL    HW113738   2.525   0.198   8.269
 3435SOL    HW213739   2.392   0.163   8.332
 3435SOL     MW13740   2.456   0.220   8.318
 3436SOL     OW13741   1.848   2.549   6.430
 3436SOL    HW113742   1.833   2.555   6.524
 3436SOL    HW213743   1.940   2.524   6.421
 3436SOL     MW13744   1.858   2.547   6.441
 3437SOL     OW13745   1.198   2.010   9.590
 3437SOL    HW113746   1.201   1.957   9.670
 3437SOL    HW213747   1.286   2.004   9.553
 3437SOL     MW13748   1.209   2.002   9.596
 3438SOL     OW13749   1.797   1.603   7.830
 3438SOL    HW113750   1.808   1.581   7.923
 3438SOL    HW213751   1.764   1.522   7.791
 3438SOL     MW13752   1.794   1.590   7.837
 3439SOL     OW13753   9.158   5.110   1.184
 3439SOL    HW113754   9.093   5.082   1.248
 3439SOL    HW213755   9.133   5.066   1.103
 3439SOL     MW13756   9.146   5.100   1.182
 3440SOL     OW13757   7.404   3.096   3.418
 3440SOL    HW113758   7.373   3.160   3.353
 3440SOL    HW213759   7.390   3.011   3.376
 3440SOL     MW13760   7.399   3.094   3.404
 3441SOL     OW13761   3.394   5.224   1.393
 3441SOL    HW113762   3.471   5.172   1.369
 3441SOL    HW213763   3.426   5.284   1.460
 3441SOL     MW13764   3.408   5.225   1.398
 3442SOL     OW13765   6.534   0.131   1.848
 3442SOL    HW113766   6.463   0.134   1.912
 3442SOL    HW213767   6.581   0.050   1.868
 3442SOL     MW13768   6.531   0.121   1.859
 3443SOL     OW13769   7.869   5.354   9.240
 3443SOL    HW113770   7.857   5.448   9.228
 3443SOL    HW213771   7.859   5.341   9.334
 3443SOL     MW13772   7.867   5.365   9.250
 3444SOL     OW13773   0.348   5.178   3.160
 3444SOL    HW113774   0.363   5.111   3.227
 3444SOL    HW213775   0.253   5.190   3.159
 3444SOL     MW13776   0.338   5.171   3.169
 3445SOL     OW13777   8.485   9.446   1.544
 3445SOL    HW113778   8.546   9.482   1.609
 3445SOL    HW213779   8.456   9.363   1.582
 3445SOL     MW13780   8.489   9.440   1.557
 3446SOL     OW13781   2.683   9.531   5.484
 3446SOL    HW113782   2.607   9.520   5.541
 3446SOL    HW213783   2.666   9.611   5.435
 3446SOL     MW13784   2.671   9.540   5.485
 3447SOL     OW13785  10.058   3.885   6.277
 3447SOL    HW113786  10.127   3.951   6.266
 3447SOL    HW213787  10.080   3.842   6.359
 3447SOL     MW13788  10.070   3.888   6.286
 3448SOL     OW13789   6.954   1.857   4.960
 3448SOL    HW113790   7.047   1.841   4.972
 3448SOL    HW213791   6.940   1.947   4.990
 3448SOL     MW13792   6.964   1.867   4.965
 3449SOL     OW13793   1.838   0.533   8.373
 3449SOL    HW113794   1.907   0.588   8.333
 3449SOL    HW213795   1.819   0.575   8.456
 3449SOL     MW13796   1.845   0.546   8.378
 3450SOL     OW13797   6.750   8.182   5.088
 3450SOL    HW113798   6.760   8.134   5.170
 3450SOL    HW213799   6.784   8.123   5.020
 3450SOL     MW13800   6.756   8.169   5.090
 3451SOL     OW13801   9.335   0.549   1.736
 3451SOL    HW113802   9.363   0.609   1.666
 3451SOL    HW213803   9.342   0.462   1.698
 3451SOL     MW13804   9.340   0.546   1.722
 3452SOL     OW13805   0.702  10.001   4.225
 3452SOL    HW113806   0.694  10.009   4.320
 3452SOL    HW213807   0.796   9.988   4.210
 3452SOL     MW13808   0.713  10.000   4.235
 3453SOL     OW13809   7.600   2.199   7.625
 3453SOL    HW113810   7.625   2.205   7.717
 3453SOL    HW213811   7.508   2.174   7.626
 3453SOL     MW13812   7.592   2.197   7.637
 3454SOL     OW13813   7.518   0.182   2.394
 3454SOL    HW113814   7.426   0.166   2.416
 3454SOL    HW213815   7.564   0.104   2.425
 3454SOL     MW13816   7.512   0.170   2.401
 3455SOL     OW13817   8.946   2.348   9.171
 3455SOL    HW113818   8.977   2.260   9.190
 3455SOL    HW213819   8.959   2.396   9.253
 3455SOL     MW13820   8.951   2.343   9.184
 3456SOL     OW13821   1.403   0.296   7.669
 3456SOL    HW113822   1.443   0.371   7.625
 3456SOL    HW213823   1.460   0.279   7.744
 3456SOL     MW13824   1.415   0.304   7.673
 3457SOL     OW13825   0.520   1.231   5.485
 3457SOL    HW113826   0.592   1.190   5.437
 3457SOL    HW213827   0.557   1.251   5.571
 3457SOL     MW13828   0.534   1.228   5.490
 3458SOL     OW13829   3.535   3.672   5.734
 3458SOL    HW113830   3.582   3.625   5.665
 3458SOL    HW213831   3.601   3.689   5.801
 3458SOL     MW13832   3.549   3.668   5.734
 3459SOL     OW13833   2.505   3.335   4.643
 3459SOL    HW113834   2.522   3.316   4.551
 3459SOL    HW213835   2.593   3.348   4.681
 3459SOL     MW13836   2.519   3.334   4.636
 3460SOL     OW13837   4.148   9.569   1.719
 3460SOL    HW113838   4.194   9.546   1.638
 3460SOL    HW213839   4.177   9.658   1.739
 3460SOL     MW13840   4.157   9.577   1.711
 3461SOL     OW13841   0.538   5.227   2.968
 3461SOL    HW113842   0.476   5.212   3.039
 3461SOL    HW213843   0.484   5.247   2.892
 3461SOL     MW13844   0.523   5.228   2.968
 3462SOL     OW13845   7.992   3.963   2.786
 3462SOL    HW113846   8.036   3.993   2.865
 3462SOL    HW213847   7.919   4.025   2.774
 3462SOL     MW13848   7.988   3.975   2.794
 3463SOL     OW13849   1.410   4.917   0.611
 3463SOL    HW113850   1.467   4.971   0.666
 3463SOL    HW213851   1.467   4.882   0.543
 3463SOL     MW13852   1.424   4.919   0.609
 3464SOL     OW13853   8.411   9.993   1.094
 3464SOL    HW113854   8.371   9.915   1.132
 3464SOL    HW213855   8.500   9.966   1.071
 3464SOL     MW13856   8.417   9.980   1.096
 3465SOL     OW13857   1.567   2.225  10.154
 3465SOL    HW113858   1.582   2.228  10.059
 3465SOL    HW213859   1.530   2.310  10.175
 3465SOL     MW13860   1.564   2.236  10.144
 3466SOL     OW13861   9.885   8.562   5.857
 3466SOL    HW113862   9.920   8.615   5.929
 3466SOL    HW213863   9.831   8.623   5.806
 3466SOL     MW13864   9.883   8.577   5.860
 3467SOL     OW13865   8.308   9.456   2.937
 3467SOL    HW113866   8.271   9.372   2.962
 3467SOL    HW213867   8.254   9.486   2.865
 3467SOL     MW13868   8.296   9.449   2.931
 3468SOL     OW13869   4.441   4.449   2.024
 3468SOL    HW113870   4.431   4.355   2.011
 3468SOL    HW213871   4.502   4.477   1.956
 3468SOL     MW13872   4.447   4.441   2.014
 3469SOL     OW13873   1.048   8.495   8.690
 3469SOL    HW113874   1.134   8.504   8.731
 3469SOL    HW213875   1.061   8.431   8.620
 3469SOL     MW13876   1.060   8.488   8.687
 3470SOL     OW13877   2.936   5.862   6.326
 3470SOL    HW113878   3.031   5.874   6.324
 3470SOL    HW213879   2.924   5.767   6.323
 3470SOL     MW13880   2.947   5.851   6.325
 3471SOL     OW13881   8.188   9.214   2.994
 3471SOL    HW113882   8.199   9.130   2.950
 3471SOL    HW213883   8.132   9.193   3.070
 3471SOL     MW13884   8.182   9.200   2.998
 3472SOL     OW13885   8.039   8.907   6.105
 3472SOL    HW113886   8.022   8.980   6.046
 3472SOL    HW213887   7.987   8.926   6.183
 3472SOL     MW13888   8.030   8.919   6.108
 3473SOL     OW13889   9.285   2.387   7.842
 3473SOL    HW113890   9.232   2.460   7.810
 3473SOL    HW213891   9.350   2.373   7.773
 3473SOL     MW13892   9.287   2.395   7.829
 3474SOL     OW13893   1.650   4.665   3.722
 3474SOL    HW113894   1.674   4.613   3.799
 3474SOL    HW213895   1.669   4.608   3.648
 3474SOL     MW13896   1.655   4.651   3.722
 3475SOL     OW13897   6.635   6.663   6.304
 3475SOL    HW113898   6.711   6.640   6.252
 3475SOL    HW213899   6.631   6.759   6.300
 3475SOL     MW13900   6.644   6.673   6.297
 3476SOL     OW13901   7.922   8.052   2.969
 3476SOL    HW113902   7.871   8.130   2.946
 3476SOL    HW213903   7.986   8.044   2.898
 3476SOL     MW13904   7.924   8.061   2.957
 3477SOL     OW13905   1.212   1.762   6.693
 3477SOL    HW113906   1.125   1.799   6.705
 3477SOL    HW213907   1.237   1.787   6.604
 3477SOL     MW13908   1.204   1.770   6.683
 3478SOL     OW13909   8.124  10.086   1.444
 3478SOL    HW113910   8.089  10.006   1.405
 3478SOL    HW213911   8.204  10.059   1.489
 3478SOL     MW13912   8.130  10.073   1.445
 3479SOL     OW13913   9.694   1.517   2.273
 3479SOL    HW113914   9.619   1.564   2.308
 3479SOL    HW213915   9.764   1.582   2.269
 3479SOL     MW13916   9.694   1.531   2.277
 3480SOL     OW13917   7.025   9.438   1.363
 3480SOL    HW113918   6.993   9.498   1.295
 3480SOL    HW213919   7.120   9.450   1.363
 3480SOL     MW13920   7.033   9.447   1.354
 3481SOL     OW13921   2.300   4.964   1.440
 3481SOL    HW113922   2.363   4.897   1.414
 3481SOL    HW213923   2.352   5.044   1.448
 3481SOL     MW13924   2.315   4.966   1.437
 3482SOL     OW13925   2.623   8.230   1.286
 3482SOL    HW113926   2.681   8.243   1.361
 3482SOL    HW213927   2.610   8.318   1.249
 3482SOL     MW13928   2.629   8.243   1.291
 3483SOL     OW13929   9.309   5.175   5.485
 3483SOL    HW113930   9.222   5.167   5.446
 3483SOL    HW213931   9.293   5.189   5.578
 3483SOL     MW13932   9.296   5.176   5.492
 3484SOL     OW13933   5.364   5.528   6.730
 3484SOL    HW113934   5.377   5.555   6.821
 3484SOL    HW213935   5.363   5.432   6.733
 3484SOL     MW13936   5.365   5.519   6.742
 3485SOL     OW13937   4.915   2.703   9.006
 3485SOL    HW113938   5.009   2.718   8.997
 3485SOL    HW213939   4.908   2.616   9.044
 3485SOL     MW13940   4.926   2.694   9.010
 3486SOL     OW13941   7.267   5.894   7.030
 3486SOL    HW113942   7.203   5.924   6.965
 3486SOL    HW213943   7.267   5.963   7.096
 3486SOL     MW13944   7.258   5.907   7.030
 3487SOL     OW13945   7.537   0.080   8.460
 3487SOL    HW113946   7.493   0.163   8.481
 3487SOL    HW213947   7.609   0.075   8.522
 3487SOL     MW13948   7.540   0.090   8.470
 3488SOL     OW13949   7.583   2.333   9.181
 3488SOL    HW113950   7.655   2.324   9.243
 3488SOL    HW213951   7.511   2.286   9.221
 3488SOL     MW13952   7.583   2.326   9.194
 3489SOL     OW13953   0.587   4.143   9.476
 3489SOL    HW113954   0.548   4.223   9.512
 3489SOL    HW213955   0.608   4.165   9.386
 3489SOL     MW13956   0.585   4.156   9.469
 3490SOL     OW13957   5.607   8.548   4.385
 3490SOL    HW113958   5.532   8.606   4.395
 3490SOL    HW213959   5.574   8.461   4.409
 3490SOL     MW13960   5.593   8.544   4.389
 3491SOL     OW13961   6.546   7.107   7.981
 3491SOL    HW113962   6.468   7.127   7.930
 3491SOL    HW213963   6.514   7.054   8.054
 3491SOL     MW13964   6.532   7.103   7.984
 3492SOL     OW13965   4.243   9.734   6.250
 3492SOL    HW113966   4.311   9.785   6.294
 3492SOL    HW213967   4.253   9.755   6.157
 3492SOL     MW13968   4.253   9.743   6.243
 3493SOL     OW13969   2.588   6.249   8.071
 3493SOL    HW113970   2.548   6.185   8.012
 3493SOL    HW213971   2.682   6.230   8.068
 3493SOL     MW13972   2.595   6.239   8.063
 3494SOL     OW13973   9.737   7.341   8.162
 3494SOL    HW113974   9.660   7.291   8.188
 3494SOL    HW213975   9.801   7.275   8.135
 3494SOL     MW13976   9.735   7.326   8.162
 3495SOL     OW13977   6.384   9.110   7.775
 3495SOL    HW113978   6.376   9.020   7.806
 3495SOL    HW213979   6.429   9.102   7.691
 3495SOL     MW13980   6.389   9.097   7.768
 3496SOL     OW13981   9.908   2.870   7.588
 3496SOL    HW113982   9.994   2.843   7.620
 3496SOL    HW213983   9.878   2.796   7.535
 3496SOL     MW13984   9.915   2.857   7.585
 3497SOL     OW13985   3.282   7.070   6.237
 3497SOL    HW113986   3.260   7.054   6.145
 3497SOL    HW213987   3.372   7.038   6.247
 3497SOL     MW13988   3.291   7.064   6.227
 3498SOL     OW13989   4.523   1.054   1.992
 3498SOL    HW113990   4.528   0.963   2.022
 3498SOL    HW213991   4.439   1.086   2.027
 3498SOL     MW13992   4.513   1.046   2.001
 3499SOL     OW13993   9.742   4.077   8.811
 3499SOL    HW113994   9.733   4.157   8.759
 3499SOL    HW213995   9.801   4.101   8.883
 3499SOL     MW13996   9.748   4.090   8.814
 3500SOL     OW13997   1.751   1.261   3.813
 3500SOL    HW113998   1.810   1.320   3.766
 3500SOL    HW213999   1.809   1.211   3.872
 3500SOL     MW14000   1.766   1.262   3.815
 3501SOL     OW14001   0.649   8.841   8.620
 3501SOL    HW114002   0.583   8.851   8.690
 3501SOL    HW214003   0.708   8.773   8.653
 3501SOL     MW14004   0.648   8.833   8.633
 3502SOL     OW14005   9.730   8.391   5.463
 3502SOL    HW114006   9.798   8.389   5.530
 3502SOL    HW214007   9.772   8.359   5.384
 3502SOL     MW14008   9.744   8.387   5.462
 3503SOL     OW14009   1.405   0.933   6.235
 3503SOL    HW114010   1.471   0.864   6.250
 3503SOL    HW214011   1.438   0.980   6.158
 3503SOL     MW14012   1.418   0.930   6.227
 3504SOL     OW14013   4.860   3.584   4.569
 3504SOL    HW114014   4.900   3.633   4.640
 3504SOL    HW214015   4.828   3.503   4.610
 3504SOL     MW14016   4.861   3.580   4.583
 3505SOL     OW14017   0.615   9.723   4.475
 3505SOL    HW114018   0.520   9.714   4.467
 3505SOL    HW214019   0.648   9.709   4.387
 3505SOL     MW14020   0.607   9.720   4.463
 3506SOL     OW14021   1.801   5.853   2.449
 3506SOL    HW114022   1.841   5.888   2.528
 3506SOL    HW214023   1.856   5.777   2.426
 3506SOL     MW14024   1.813   5.848   2.456
 3507SOL     OW14025   6.750   9.894   1.720
 3507SOL    HW114026   6.735   9.802   1.696
 3507SOL    HW214027   6.728   9.943   1.640
 3507SOL     MW14028   6.745   9.888   1.707
 3508SOL     OW14029   2.010   1.349   2.368
 3508SOL    HW114030   1.936   1.407   2.349
 3508SOL    HW214031   1.971   1.261   2.373
 3508SOL     MW14032   1.995   1.345   2.366
 3509SOL     OW14033   5.079   8.059   4.278
 3509SOL    HW114034   5.095   8.085   4.187
 3509SOL    HW214035   4.987   8.032   4.280
 3509SOL     MW14036   5.069   8.059   4.267
 3510SOL     OW14037   4.659   2.022   5.041
 3510SOL    HW114038   4.581   2.048   4.993
 3510SOL    HW214039   4.632   1.946   5.092
 3510SOL     MW14040   4.646   2.016   5.042
 3511SOL     OW14041   3.368   6.693   0.161
 3511SOL    HW114042   3.344   6.773   0.207
 3511SOL    HW214043   3.363   6.715   0.068
 3511SOL     MW14044   3.364   6.706   0.155
 3512SOL     OW14045   3.429   5.769   6.432
 3512SOL    HW114046   3.412   5.699   6.495
 3512SOL    HW214047   3.525   5.778   6.432
 3512SOL     MW14048   3.439   5.761   6.440
 3513SOL     OW14049   3.907   3.493  10.045
 3513SOL    HW114050   4.000   3.476  10.032
 3513SOL    HW214051   3.872   3.410  10.077
 3513SOL     MW14052   3.914   3.480  10.048
 3514SOL     OW14053   2.268   7.468   8.298
 3514SOL    HW114054   2.216   7.436   8.372
 3514SOL    HW214055   2.288   7.559   8.321
 3514SOL     MW14056   2.264   7.475   8.310
 3515SOL     OW14057   0.362   3.503   5.266
 3515SOL    HW114058   0.315   3.420   5.272
 3515SOL    HW214059   0.294   3.570   5.273
 3515SOL     MW14060   0.347   3.501   5.268
 3516SOL     OW14061   5.993   1.975   2.211
 3516SOL    HW114062   5.917   1.954   2.265
 3516SOL    HW214063   6.053   1.902   2.223
 3516SOL     MW14064   5.991   1.963   2.219
 3517SOL     OW14065   4.656   9.891   5.410
 3517SOL    HW114066   4.699   9.826   5.354
 3517SOL    HW214067   4.578   9.918   5.361
 3517SOL     MW14068   4.651   9.886   5.397
 3518SOL     OW14069   9.665   2.559   5.430
 3518SOL    HW114070   9.758   2.574   5.450
 3518SOL    HW214071   9.649   2.612   5.352
 3518SOL     MW14072   9.675   2.568   5.423
 3519SOL     OW14073   1.441   5.478   8.736
 3519SOL    HW114074   1.365   5.424   8.759
 3519SOL    HW214075   1.483   5.497   8.820
 3519SOL     MW14076   1.437   5.473   8.750
 3520SOL     OW14077   5.901   0.577   6.962
 3520SOL    HW114078   5.811   0.589   6.994
 3520SOL    HW214079   5.893   0.584   6.867
 3520SOL     MW14080   5.888   0.579   6.954
 3521SOL     OW14081   1.511   8.242   7.869
 3521SOL    HW114082   1.592   8.282   7.901
 3521SOL    HW214083   1.529   8.148   7.866
 3521SOL     MW14084   1.523   8.235   7.873
 3522SOL     OW14085   3.950   8.181   7.919
 3522SOL    HW114086   3.948   8.258   7.976
 3522SOL    HW214087   4.026   8.130   7.949
 3522SOL     MW14088   3.959   8.184   7.930
 3523SOL     OW14089   3.171   4.863   9.933
 3523SOL    HW114090   3.211   4.915   9.864
 3523SOL    HW214091   3.104   4.811   9.889
 3523SOL     MW14092   3.167   4.863   9.919
 3524SOL     OW14093   3.421   0.767   6.489
 3524SOL    HW114094   3.469   0.704   6.436
 3524SOL    HW214095   3.337   0.724   6.507
 3524SOL     MW14096   3.416   0.753   6.484
 3525SOL     OW14097   8.070   2.429   7.571
 3525SOL    HW114098   8.063   2.340   7.604
 3525SOL    HW214099   8.017   2.429   7.491
 3525SOL     MW14100   8.062   2.418   7.565
 3526SOL     OW14101   1.947   3.565   5.897
 3526SOL    HW114102   1.929   3.473   5.916
 3526SOL    HW214103   1.863   3.609   5.907
 3526SOL     MW14104   1.934   3.559   5.901
 3527SOL     OW14105   0.239   8.103   6.212
 3527SOL    HW114106   0.217   8.122   6.303
 3527SOL    HW214107   0.238   8.188   6.169
 3527SOL     MW14108   0.236   8.116   6.218
 3528SOL     OW14109   7.898   5.144   1.582
 3528SOL    HW114110   7.932   5.061   1.616
 3528SOL    HW214111   7.810   5.151   1.620
 3528SOL     MW14112   7.891   5.134   1.592
 3529SOL     OW14113   8.435   7.795   0.598
 3529SOL    HW114114   8.411   7.706   0.625
 3529SOL    HW214115   8.489   7.828   0.670
 3529SOL     MW14116   8.439   7.788   0.611
 3530SOL     OW14117   7.704   9.004   8.851
 3530SOL    HW114118   7.697   8.999   8.946
 3530SOL    HW214119   7.654   9.082   8.827
 3530SOL     MW14120   7.697   9.013   8.860
 3531SOL     OW14121   5.680   0.261   4.380
 3531SOL    HW114122   5.738   0.273   4.305
 3531SOL    HW214123   5.705   0.331   4.441
 3531SOL     MW14124   5.691   0.272   4.378
 3532SOL     OW14125   4.380   9.625   9.664
 3532SOL    HW114126   4.291   9.598   9.690
 3532SOL    HW214127   4.417   9.549   9.621
 3532SOL     MW14128   4.373   9.612   9.662
 3533SOL     OW14129   7.769   2.388   0.199
 3533SOL    HW114130   7.743   2.480   0.188
 3533SOL    HW214131   7.714   2.357   0.271
 3533SOL     MW14132   7.759   2.396   0.207
 3534SOL     OW14133   2.046   1.011  10.163
 3534SOL    HW114134   2.031   0.995  10.070
 3534SOL    HW214135   1.959   1.035  10.197
 3534SOL     MW14136   2.033   1.012  10.156
 3535SOL     OW14137   1.218   8.605   9.617
 3535SOL    HW114138   1.291   8.666   9.627
 3535SOL    HW214139   1.145   8.659   9.587
 3535SOL     MW14140   1.218   8.620   9.614
 3536SOL     OW14141   5.607   5.626   2.862
 3536SOL    HW114142   5.701   5.640   2.872
 3536SOL    HW214143   5.595   5.532   2.876
 3536SOL     MW14144   5.617   5.616   2.865
 3537SOL     OW14145   2.656   2.934   6.755
 3537SOL    HW114146   2.667   2.855   6.702
 3537SOL    HW214147   2.592   2.909   6.822
 3537SOL     MW14148   2.649   2.921   6.757
 3538SOL     OW14149   0.128   1.218   3.555
 3538SOL    HW114150   0.211   1.171   3.563
 3538SOL    HW214151   0.144   1.302   3.598
 3538SOL     MW14152   0.141   1.222   3.562
 3539SOL     OW14153   1.933   5.946   2.665
 3539SOL    HW114154   2.006   6.007   2.667
 3539SOL    HW214155   1.955   5.879   2.730
 3539SOL     MW14156   1.945   5.945   2.674
 3540SOL     OW14157   0.497   7.492   2.445
 3540SOL    HW114158   0.535   7.450   2.523
 3540SOL    HW214159   0.532   7.581   2.447
 3540SOL     MW14160   0.506   7.498   2.455
 3541SOL     OW14161   1.882   7.193   2.686
 3541SOL    HW114162   1.842   7.268   2.730
 3541SOL    HW214163   1.881   7.216   2.594
 3541SOL     MW14164   1.877   7.205   2.680
 3542SOL     OW14165   6.127   1.545   1.258
 3542SOL    HW114166   6.216   1.544   1.222
 3542SOL    HW214167   6.131   1.610   1.328
 3542SOL     MW14168   6.139   1.554   1.262
 3543SOL     OW14169   0.363   7.946   0.942
 3543SOL    HW114170   0.283   7.999   0.941
 3543SOL    HW214171   0.425   7.995   0.889
 3543SOL     MW14172   0.360   7.959   0.935
 3544SOL     OW14173   0.920   2.416   4.974
 3544SOL    HW114174   0.984   2.440   5.040
 3544SOL    HW214175   0.837   2.410   5.021
 3544SOL     MW14176   0.918   2.418   4.988
 3545SOL     OW14177   2.586   6.078   2.358
 3545SOL    HW114178   2.604   6.117   2.273
 3545SOL    HW214179   2.575   5.985   2.341
 3545SOL     MW14180   2.587   6.071   2.345
 3546SOL     OW14181   5.083   5.984   3.492
 3546SOL    HW114182   5.163   6.037   3.496
 3546SOL    HW214183   5.085   5.944   3.406
 3546SOL     MW14184   5.093   5.986   3.482
 3547SOL     OW14185   7.747   8.265   0.146
 3547SOL    HW114186   7.775   8.181   0.184
 3547SOL    HW214187   7.797   8.273   0.065
 3547SOL     MW14188   7.757   8.255   0.141
 3548SOL     OW14189   5.367   7.156   5.482
 3548SOL    HW114190   5.402   7.191   5.565
 3548SOL    HW214191   5.410   7.208   5.414
 3548SOL     MW14192   5.377   7.167   5.484
 3549SOL     OW14193   2.660   8.452   5.375
 3549SOL    HW114194   2.623   8.518   5.315
 3549SOL    HW214195   2.624   8.474   5.460
 3549SOL     MW14196   2.651   8.463   5.378
 3550SOL     OW14197   2.720   2.357   2.366
 3550SOL    HW114198   2.777   2.298   2.415
 3550SOL    HW214199   2.753   2.354   2.276
 3550SOL     MW14200   2.731   2.349   2.361
 3551SOL     OW14201   4.879   2.959   8.912
 3551SOL    HW114202   4.881   2.867   8.939
 3551SOL    HW214203   4.848   3.006   8.990
 3551SOL     MW14204   4.875   2.953   8.926
 3552SOL     OW14205   9.046  10.025   9.554
 3552SOL    HW114206   8.987  10.015   9.479
 3552SOL    HW214207   8.990  10.062   9.622
 3552SOL     MW14208   9.031  10.029   9.553
 3553SOL     OW14209   7.493   6.586   1.128
 3553SOL    HW114210   7.503   6.668   1.176
 3553SOL    HW214211   7.413   6.598   1.077
 3553SOL     MW14212   7.484   6.598   1.128
 3554SOL     OW14213   0.163   2.530   3.720
 3554SOL    HW114214   0.135   2.577   3.642
 3554SOL    HW214215   0.146   2.590   3.793
 3554SOL     MW14216   0.158   2.544   3.720
 3555SOL     OW14217   7.516   3.853   1.655
 3555SOL    HW114218   7.527   3.923   1.720
 3555SOL    HW214219   7.596   3.800   1.663
 3555SOL     MW14220   7.528   3.855   1.664
 3556SOL     OW14221   5.372   3.325   1.760
 3556SOL    HW114222   5.279   3.331   1.783
 3556SOL    HW214223   5.417   3.375   1.828
 3556SOL     MW14224   5.366   3.333   1.772
 3557SOL     OW14225   0.072   7.313   2.452
 3557SOL    HW114226   0.008   7.339   2.518
 3557SOL    HW214227   0.045   7.359   2.373
 3557SOL     MW14228   0.060   7.322   2.450
 3558SOL     OW14229   0.990   7.677   3.406
 3558SOL    HW114230   1.053   7.614   3.372
 3558SOL    HW214231   0.988   7.660   3.500
 3558SOL     MW14232   0.997   7.667   3.414
 3559SOL     OW14233   6.003   7.050   0.788
 3559SOL    HW114234   6.080   7.067   0.734
 3559SOL    HW214235   6.035   6.993   0.858
 3559SOL     MW14236   6.017   7.045   0.790
 3560SOL     OW14237   4.875   5.196   9.622
 3560SOL    HW114238   4.792   5.229   9.656
 3560SOL    HW214239   4.869   5.209   9.527
 3560SOL     MW14240   4.863   5.202   9.614
 3561SOL     OW14241   9.976   8.875   0.423
 3561SOL    HW114242  10.040   8.893   0.354
 3561SOL    HW214243  10.026   8.825   0.488
 3561SOL     MW14244   9.991   8.871   0.423
 3562SOL     OW14245   5.932   8.285   4.920
 3562SOL    HW114246   5.946   8.316   4.830
 3562SOL    HW214247   5.876   8.208   4.910
 3562SOL     MW14248   5.927   8.279   4.907
 3563SOL     OW14249   9.750   4.098   1.631
 3563SOL    HW114250   9.817   4.033   1.652
 3563SOL    HW214251   9.685   4.050   1.579
 3563SOL     MW14252   9.750   4.084   1.627
 3564SOL     OW14253   3.218   5.509   9.066
 3564SOL    HW114254   3.281   5.437   9.067
 3564SOL    HW214255   3.246   5.564   8.993
 3564SOL     MW14256   3.230   5.507   9.057
 3565SOL     OW14257   1.826   3.922   1.090
 3565SOL    HW114258   1.763   3.850   1.102
 3565SOL    HW214259   1.908   3.878   1.068
 3565SOL     MW14260   1.828   3.907   1.088
 3566SOL     OW14261   0.170   9.525   8.042
 3566SOL    HW114262   0.222   9.574   7.979
 3566SOL    HW214263   0.233   9.467   8.085
 3566SOL     MW14264   0.185   9.524   8.040
 3567SOL     OW14265   5.938   2.149   5.260
 3567SOL    HW114266   5.982   2.155   5.345
 3567SOL    HW214267   6.006   2.167   5.196
 3567SOL     MW14268   5.952   2.152   5.263
 3568SOL     OW14269   1.765   1.185   3.531
 3568SOL    HW114270   1.838   1.240   3.557
 3568SOL    HW214271   1.717   1.169   3.613
 3568SOL     MW14272   1.768   1.190   3.545
 3569SOL     OW14273   5.224   7.922   5.594
 3569SOL    HW114274   5.295   7.965   5.641
 3569SOL    HW214275   5.230   7.955   5.504
 3569SOL     MW14276   5.234   7.932   5.588
 3570SOL     OW14277   0.410   7.242   3.816
 3570SOL    HW114278   0.497   7.243   3.856
 3570SOL    HW214279   0.410   7.163   3.761
 3570SOL     MW14280   0.421   7.232   3.814
 3571SOL     OW14281   0.652   4.373   0.054
 3571SOL    HW114282   0.646   4.456   0.100
 3571SOL    HW214283   0.722   4.325   0.099
 3571SOL     MW14284   0.660   4.377   0.066
 3572SOL     OW14285   9.658   8.778   5.263
 3572SOL    HW114286   9.634   8.725   5.339
 3572SOL    HW214287   9.716   8.845   5.299
 3572SOL     MW14288   9.662   8.780   5.278
 3573SOL     OW14289   9.209   1.182   6.236
 3573SOL    HW114290   9.117   1.163   6.221
 3573SOL    HW214291   9.236   1.232   6.158
 3573SOL     MW14292   9.201   1.186   6.224
 3574SOL     OW14293   5.473   9.676   6.291
 3574SOL    HW114294   5.386   9.651   6.323
 3574SOL    HW214295   5.490   9.761   6.332
 3574SOL     MW14296   5.464   9.684   6.300
 3575SOL     OW14297   1.645   2.689   0.056
 3575SOL    HW114298   1.616   2.778   0.031
 3575SOL    HW214299   1.688   2.701   0.140
 3575SOL     MW14300   1.647   2.702   0.063
 3576SOL     OW14301   8.732   6.045   7.807
 3576SOL    HW114302   8.735   6.004   7.721
 3576SOL    HW214303   8.791   6.120   7.801
 3576SOL     MW14304   8.740   6.049   7.795
 3577SOL     OW14305   5.950   4.143   5.957
 3577SOL    HW114306   5.881   4.079   5.973
 3577SOL    HW214307   5.905   4.216   5.914
 3577SOL     MW14308   5.935   4.144   5.953
 3578SOL     OW14309   1.396   4.400   7.199
 3578SOL    HW114310   1.461   4.341   7.161
 3578SOL    HW214311   1.406   4.389   7.294
 3578SOL     MW14312   1.406   4.391   7.206
 3579SOL     OW14313   4.267   1.380   2.228
 3579SOL    HW114314   4.183   1.424   2.219
 3579SOL    HW214315   4.326   1.447   2.261
 3579SOL     MW14316   4.264   1.394   2.231
 3580SOL     OW14317   8.802   2.002   9.922
 3580SOL    HW114318   8.867   1.974   9.859
 3580SOL    HW214319   8.766   2.083   9.886
 3580SOL     MW14320   8.805   2.009   9.909
 3581SOL     OW14321   5.654   3.927   0.654
 3581SOL    HW114322   5.749   3.925   0.671
 3581SOL    HW214323   5.619   3.853   0.703
 3581SOL     MW14324   5.662   3.917   0.662
 3582SOL     OW14325   8.280   6.997   3.461
 3582SOL    HW114326   8.208   6.936   3.445
 3582SOL    HW214327   8.237   7.083   3.465
 3582SOL     MW14328   8.265   7.000   3.460
 3583SOL     OW14329   6.023   9.335   3.757
 3583SOL    HW114330   6.007   9.382   3.675
 3583SOL    HW214331   6.092   9.385   3.801
 3583SOL     MW14332   6.030   9.347   3.752
 3584SOL     OW14333   2.351   1.745   7.750
 3584SOL    HW114334   2.354   1.832   7.788
 3584SOL    HW214335   2.281   1.749   7.686
 3584SOL     MW14336   2.343   1.756   7.747
 3585SOL     OW14337   3.736   5.511   4.606
 3585SOL    HW114338   3.827   5.536   4.619
 3585SOL    HW214339   3.711   5.553   4.523
 3585SOL     MW14340   3.744   5.520   4.597
 3586SOL     OW14341   5.078   1.407  10.123
 3586SOL    HW114342   5.131   1.406  10.203
 3586SOL    HW214343   4.992   1.438  10.152
 3586SOL     MW14344   5.074   1.411  10.137
 3587SOL     OW14345   9.822   2.581   0.190
 3587SOL    HW114346   9.807   2.489   0.169
 3587SOL    HW214347   9.777   2.595   0.274
 3587SOL     MW14348   9.815   2.571   0.198
 3588SOL     OW14349   4.603   8.557   2.448
 3588SOL    HW114350   4.583   8.650   2.459
 3588SOL    HW214351   4.698   8.552   2.453
 3588SOL     MW14352   4.613   8.568   2.450
 3589SOL     OW14353   1.972   9.880   4.935
 3589SOL    HW114354   2.008   9.896   4.848
 3589SOL    HW214355   1.959   9.785   4.938
 3589SOL     MW14356   1.975   9.870   4.925
 3590SOL     OW14357   9.772   5.174   3.721
 3590SOL    HW114358   9.750   5.211   3.806
 3590SOL    HW214359   9.842   5.112   3.738
 3590SOL     MW14360   9.778   5.171   3.734
 3591SOL     OW14361   9.603   1.483   1.324
 3591SOL    HW114362   9.545   1.425   1.275
 3591SOL    HW214363   9.554   1.564   1.333
 3591SOL     MW14364   9.590   1.486   1.319
 3592SOL     OW14365  10.049   5.839   8.754
 3592SOL    HW114366  10.043   5.830   8.659
 3592SOL    HW214367  10.058   5.933   8.769
 3592SOL     MW14368  10.049   5.850   8.744
 3593SOL     OW14369   3.663   6.250   7.160
 3593SOL    HW114370   3.579   6.205   7.151
 3593SOL    HW214371   3.728   6.179   7.162
 3593SOL     MW14372   3.661   6.235   7.159
 3594SOL     OW14373   6.542   3.216   4.965
 3594SOL    HW114374   6.538   3.302   4.923
 3594SOL    HW214375   6.632   3.188   4.954
 3594SOL     MW14376   6.553   3.224   4.958
 3595SOL     OW14377   5.358   1.076   0.964
 3595SOL    HW114378   5.275   1.052   1.006
 3595SOL    HW214379   5.403   1.130   1.028
 3595SOL     MW14380   5.353   1.080   0.978
 3596SOL     OW14381   7.673   9.766   2.622
 3596SOL    HW114382   7.716   9.846   2.652
 3596SOL    HW214383   7.608   9.747   2.690
 3596SOL     MW14384   7.671   9.774   2.634
 3597SOL     OW14385   4.896   9.958   6.119
 3597SOL    HW114386   4.874   9.935   6.029
 3597SOL    HW214387   4.901  10.054   6.119
 3597SOL     MW14388   4.894   9.967   6.108
 3598SOL     OW14389   3.701   0.246   8.212
 3598SOL    HW114390   3.709   0.341   8.202
 3598SOL    HW214391   3.739   0.228   8.298
 3598SOL     MW14392   3.707   0.256   8.221
 3599SOL     OW14393   0.889   3.204  10.009
 3599SOL    HW114394   0.978   3.172  10.025
 3599SOL    HW214395   0.834   3.126  10.015
 3599SOL     MW14396   0.894   3.190  10.012
 3600SOL     OW14397   6.703   9.739   3.611
 3600SOL    HW114398   6.691   9.788   3.529
 3600SOL    HW214399   6.658   9.791   3.677
 3600SOL     MW14400   6.695   9.752   3.609
 3601SOL     OW14401   1.478   4.000   6.682
 3601SOL    HW114402   1.421   3.992   6.606
 3601SOL    HW214403   1.567   3.997   6.647
 3601SOL     MW14404   1.482   3.999   6.668
 3602SOL     OW14405   8.443   3.325   7.666
 3602SOL    HW114406   8.419   3.377   7.589
 3602SOL    HW214407   8.532   3.353   7.687
 3602SOL     MW14408   8.451   3.335   7.659
 3603SOL     OW14409   7.660   5.135   0.240
 3603SOL    HW114410   7.690   5.197   0.306
 3603SOL    HW214411   7.675   5.049   0.280
 3603SOL     MW14412   7.666   5.132   0.254
 3604SOL     OW14413   8.043   2.396   0.216
 3604SOL    HW114414   8.066   2.454   0.143
 3604SOL    HW214415   7.948   2.396   0.218
 3604SOL     MW14416   8.034   2.404   0.207
 3605SOL     OW14417   6.455   4.399   8.760
 3605SOL    HW114418   6.359   4.403   8.755
 3605SOL    HW214419   6.485   4.448   8.683
 3605SOL     MW14420   6.446   4.406   8.750
 3606SOL     OW14421   4.462   2.118   3.483
 3606SOL    HW114422   4.527   2.179   3.518
 3606SOL    HW214423   4.444   2.058   3.555
 3606SOL     MW14424   4.468   2.118   3.497
 3607SOL     OW14425   8.155   2.930   3.521
 3607SOL    HW114426   8.151   3.003   3.460
 3607SOL    HW214427   8.173   2.971   3.606
 3607SOL     MW14428   8.157   2.945   3.524
 3608SOL     OW14429   0.420   8.514   9.989
 3608SOL    HW114430   0.366   8.460  10.046
 3608SOL    HW214431   0.412   8.602  10.023
 3608SOL     MW14432   0.412   8.518  10.000
 3609SOL     OW14433   6.424   2.692   9.137
 3609SOL    HW114434   6.501   2.723   9.184
 3609SOL    HW214435   6.365   2.659   9.205
 3609SOL     MW14436   6.426   2.691   9.152
 3610SOL     OW14437   9.981   0.682   6.737
 3610SOL    HW114438   9.978   0.777   6.748
 3610SOL    HW214439   9.951   0.667   6.647
 3610SOL     MW14440   9.976   0.692   6.727
 3611SOL     OW14441   4.067   1.780   2.272
 3611SOL    HW114442   4.018   1.823   2.342
 3611SOL    HW214443   4.062   1.841   2.198
 3611SOL     MW14444   4.060   1.793   2.271
 3612SOL     OW14445   3.143   5.636  10.064
 3612SOL    HW114446   3.150   5.588   9.981
 3612SOL    HW214447   3.215   5.699  10.061
 3612SOL     MW14448   3.153   5.638  10.053
 3613SOL     OW14449   6.860   5.998   0.093
 3613SOL    HW114450   6.861   5.929   0.026
 3613SOL    HW214451   6.906   5.959   0.168
 3613SOL     MW14452   6.866   5.984   0.094
 3614SOL     OW14453   8.150   2.394   6.053
 3614SOL    HW114454   8.108   2.479   6.038
 3614SOL    HW214455   8.190   2.402   6.140
 3614SOL     MW14456   8.150   2.406   6.062
 3615SOL     OW14457   7.759   3.952   4.783
 3615SOL    HW114458   7.715   4.037   4.771
 3615SOL    HW214459   7.820   3.947   4.709
 3615SOL     MW14460   7.761   3.962   4.772
 3616SOL     OW14461   9.922   0.929   5.116
 3616SOL    HW114462   9.913   0.866   5.045
 3616SOL    HW214463   9.917   1.015   5.074
 3616SOL     MW14464   9.920   0.932   5.102
 3617SOL     OW14465   4.721   0.582   2.142
 3617SOL    HW114466   4.713   0.578   2.237
 3617SOL    HW214467   4.643   0.538   2.109
 3617SOL     MW14468   4.710   0.576   2.150
 3618SOL     OW14469   2.765   5.420   2.633
 3618SOL    HW114470   2.770   5.363   2.556
 3618SOL    HW214471   2.826   5.491   2.613
 3618SOL     MW14472   2.774   5.422   2.621
 3619SOL     OW14473   5.188   4.442   8.443
 3619SOL    HW114474   5.230   4.527   8.458
 3619SOL    HW214475   5.172   4.407   8.531
 3619SOL     MW14476   5.191   4.448   8.456
 3620SOL     OW14477   7.979   2.555   3.429
 3620SOL    HW114478   7.946   2.644   3.436
 3620SOL    HW214479   8.035   2.543   3.506
 3620SOL     MW14480   7.982   2.565   3.440
 3621SOL     OW14481   1.384   1.567   6.779
 3621SOL    HW114482   1.345   1.540   6.863
 3621SOL    HW214483   1.328   1.639   6.749
 3621SOL     MW14484   1.372   1.573   6.786
 3622SOL     OW14485   8.291   6.582   0.589
 3622SOL    HW114486   8.198   6.581   0.610
 3622SOL    HW214487   8.332   6.535   0.662
 3622SOL     MW14488   8.285   6.576   0.601
 3623SOL     OW14489   3.284   5.649   8.834
 3623SOL    HW114490   3.369   5.687   8.811
 3623SOL    HW214491   3.263   5.591   8.761
 3623SOL     MW14492   3.292   5.647   8.822
 3624SOL     OW14493   8.648   8.466   7.193
 3624SOL    HW114494   8.630   8.439   7.284
 3624SOL    HW214495   8.608   8.397   7.140
 3624SOL     MW14496   8.641   8.453   7.198
 3625SOL     OW14497   3.251   3.958   5.135
 3625SOL    HW114498   3.251   4.053   5.145
 3625SOL    HW214499   3.161   3.937   5.111
 3625SOL     MW14500   3.239   3.967   5.133
 3626SOL     OW14501   9.207   8.683   6.745
 3626SOL    HW114502   9.222   8.602   6.697
 3626SOL    HW214503   9.122   8.670   6.788
 3626SOL     MW14504   9.198   8.671   6.745
 3627SOL     OW14505   2.157   3.776   6.403
 3627SOL    HW114506   2.204   3.772   6.320
 3627SOL    HW214507   2.225   3.774   6.470
 3627SOL     MW14508   2.172   3.775   6.401
 3628SOL     OW14509   2.151   2.008   7.429
 3628SOL    HW114510   2.076   2.066   7.442
 3628SOL    HW214511   2.215   2.063   7.383
 3628SOL     MW14512   2.150   2.023   7.425
 3629SOL     OW14513   0.982   9.942   4.472
 3629SOL    HW114514   0.889   9.957   4.493
 3629SOL    HW214515   0.982   9.913   4.381
 3629SOL     MW14516   0.970   9.940   4.463
 3630SOL     OW14517   7.889   2.330   3.282
 3630SOL    HW114518   7.905   2.260   3.346
 3630SOL    HW214519   7.902   2.411   3.332
 3630SOL     MW14520   7.893   2.332   3.297
 3631SOL     OW14521   7.581   9.866   2.386
 3631SOL    HW114522   7.627   9.821   2.315
 3631SOL    HW214523   7.611   9.821   2.466
 3631SOL     MW14524   7.591   9.854   2.387
 3632SOL     OW14525   5.457   3.939   2.079
 3632SOL    HW114526   5.473   3.963   1.988
 3632SOL    HW214527   5.531   3.976   2.128
 3632SOL     MW14528   5.468   3.947   2.074
 3633SOL     OW14529   9.757   1.327   5.886
 3633SOL    HW114530   9.845   1.351   5.917
 3633SOL    HW214531   9.758   1.350   5.793
 3633SOL     MW14532   9.769   1.333   5.878
 3634SOL     OW14533   1.567   5.099   3.775
 3634SOL    HW114534   1.656   5.102   3.740
 3634SOL    HW214535   1.512   5.137   3.707
 3634SOL     MW14536   1.571   5.104   3.762
 3635SOL     OW14537   9.380   4.526   1.138
 3635SOL    HW114538   9.357   4.612   1.104
 3635SOL    HW214539   9.370   4.467   1.063
 3635SOL     MW14540   9.376   4.529   1.124
 3636SOL     OW14541   2.894   9.449   1.798
 3636SOL    HW114542   2.832   9.403   1.741
 3636SOL    HW214543   2.905   9.535   1.758
 3636SOL     MW14544   2.888   9.454   1.786
 3637SOL     OW14545   9.058   5.170   5.375
 3637SOL    HW114546   8.992   5.102   5.362
 3637SOL    HW214547   9.077   5.203   5.287
 3637SOL     MW14548   9.052   5.165   5.362
 3638SOL     OW14549   2.412   5.573   2.939
 3638SOL    HW114550   2.497   5.536   2.915
 3638SOL    HW214551   2.422   5.598   3.031
 3638SOL     MW14552   2.424   5.572   2.948
 3639SOL     OW14553   3.672   6.488   4.030
 3639SOL    HW114554   3.677   6.569   4.080
 3639SOL    HW214555   3.583   6.489   3.993
 3639SOL     MW14556   3.661   6.498   4.031
 3640SOL     OW14557   3.109   0.136   4.564
 3640SOL    HW114558   3.094   0.117   4.471
 3640SOL    HW214559   3.182   0.197   4.565
 3640SOL     MW14560   3.116   0.141   4.552
 3641SOL     OW14561   1.074   9.887   1.637
 3641SOL    HW114562   0.991   9.840   1.627
 3641SOL    HW214563   1.133   9.822   1.676
 3641SOL     MW14564   1.071   9.872   1.641
 3642SOL     OW14565   4.655   7.088   1.546
 3642SOL    HW114566   4.655   7.069   1.452
 3642SOL    HW214567   4.604   7.169   1.554
 3642SOL     MW14568   4.648   7.096   1.535
 3643SOL     OW14569   6.365   0.310   2.901
 3643SOL    HW114570   6.368   0.403   2.923
 3643SOL    HW214571   6.365   0.307   2.805
 3643SOL     MW14572   6.365   0.321   2.891
 3644SOL     OW14573   1.858   4.945   5.169
 3644SOL    HW114574   1.920   4.973   5.236
 3644SOL    HW214575   1.861   5.014   5.102
 3644SOL     MW14576   1.866   4.957   5.169
 3645SOL     OW14577   7.999   3.242   7.763
 3645SOL    HW114578   8.092   3.219   7.765
 3645SOL    HW214579   7.982   3.282   7.849
 3645SOL     MW14580   8.008   3.244   7.774
 3646SOL     OW14581   6.745   3.501   0.712
 3646SOL    HW114582   6.733   3.417   0.668
 3646SOL    HW214583   6.657   3.538   0.719
 3646SOL     MW14584   6.732   3.495   0.707
 3647SOL     OW14585   0.677   3.286   2.914
 3647SOL    HW114586   0.748   3.349   2.930
 3647SOL    HW214587   0.613   3.304   2.984
 3647SOL     MW14588   0.678   3.297   2.925
 3648SOL     OW14589   6.630  10.132   3.428
 3648SOL    HW114590   6.680  10.051   3.413
 3648SOL    HW214591   6.596  10.155   3.342
 3648SOL     MW14592   6.632  10.124   3.415
 3649SOL     OW14593   9.236   5.243   5.742
 3649SOL    HW114594   9.143   5.251   5.723
 3649SOL    HW214595   9.264   5.331   5.766
 3649SOL     MW14596   9.228   5.255   5.743
 3650SOL     OW14597   0.270   3.197   8.633
 3650SOL    HW114598   0.228   3.185   8.718
 3650SOL    HW214599   0.357   3.158   8.643
 3650SOL     MW14600   0.276   3.191   8.645
 3651SOL     OW14601   7.021   9.845   0.485
 3651SOL    HW114602   6.983   9.757   0.482
 3651SOL    HW214603   6.946   9.904   0.482
 3651SOL     MW14604   7.007   9.841   0.484
 3652SOL     OW14605   8.298   7.365   7.256
 3652SOL    HW114606   8.360   7.325   7.195
 3652SOL    HW214607   8.351   7.428   7.306
 3652SOL     MW14608   8.313   7.368   7.254
 3653SOL     OW14609   1.399   9.061   4.430
 3653SOL    HW114610   1.382   9.072   4.336
 3653SOL    HW214611   1.334   9.117   4.472
 3653SOL     MW14612   1.388   9.070   4.423
 3654SOL     OW14613   6.012   6.121   8.169
 3654SOL    HW114614   5.956   6.073   8.107
 3654SOL    HW214615   5.998   6.213   8.147
 3654SOL     MW14616   6.003   6.126   8.158
 3655SOL     OW14617   1.849   2.733   3.618
 3655SOL    HW114618   1.915   2.671   3.648
 3655SOL    HW214619   1.843   2.798   3.688
 3655SOL     MW14620   1.857   2.733   3.631
 3656SOL     OW14621   3.553   4.405   4.178
 3656SOL    HW114622   3.534   4.334   4.239
 3656SOL    HW214623   3.642   4.389   4.148
 3656SOL     MW14624   3.562   4.394   4.182
 3657SOL     OW14625   9.468   6.655   7.927
 3657SOL    HW114626   9.416   6.733   7.907
 3657SOL    HW214627   9.558   6.685   7.925
 3657SOL     MW14628   9.473   6.669   7.924
 3658SOL     OW14629   7.753   2.734   5.106
 3658SOL    HW114630   7.794   2.673   5.167
 3658SOL    HW214631   7.824   2.763   5.049
 3658SOL     MW14632   7.767   2.730   5.107
 3659SOL     OW14633   0.561   7.469   7.865
 3659SOL    HW114634   0.592   7.378   7.869
 3659SOL    HW214635   0.524   7.478   7.778
 3659SOL     MW14636   0.560   7.458   7.854
 3660SOL     OW14637   4.275   7.750   5.016
 3660SOL    HW114638   4.360   7.737   5.058
 3660SOL    HW214639   4.241   7.661   5.002
 3660SOL     MW14640   4.281   7.737   5.019
 3661SOL     OW14641   9.873   3.896   8.231
 3661SOL    HW114642   9.839   3.947   8.157
 3661SOL    HW214643   9.843   3.806   8.213
 3661SOL     MW14644   9.865   3.891   8.219
 3662SOL     OW14645   1.203   0.307   0.324
 3662SOL    HW114646   1.198   0.215   0.350
 3662SOL    HW214647   1.261   0.347   0.389
 3662SOL     MW14648   1.209   0.301   0.336
 3663SOL     OW14649   4.414   6.124   9.061
 3663SOL    HW114650   4.451   6.157   9.143
 3663SOL    HW214651   4.327   6.093   9.085
 3663SOL     MW14652   4.408   6.124   9.074
 3664SOL     OW14653   7.554   6.734   8.207
 3664SOL    HW114654   7.577   6.669   8.273
 3664SOL    HW214655   7.593   6.816   8.239
 3664SOL     MW14656   7.562   6.737   8.220
 3665SOL     OW14657   7.600   5.325   3.474
 3665SOL    HW114658   7.545   5.246   3.474
 3665SOL    HW214659   7.671   5.305   3.414
 3665SOL     MW14660   7.602   5.312   3.467
 3666SOL     OW14661   6.093   7.381   1.039
 3666SOL    HW114662   6.141   7.461   1.022
 3666SOL    HW214663   6.021   7.408   1.096
 3666SOL     MW14664   6.090   7.394   1.045
 3667SOL     OW14665   6.447   9.078   1.361
 3667SOL    HW114666   6.468   9.014   1.292
 3667SOL    HW214667   6.532   9.118   1.382
 3667SOL     MW14668   6.461   9.075   1.355
 3668SOL     OW14669   4.037   4.571   5.282
 3668SOL    HW114670   4.032   4.607   5.193
 3668SOL    HW214671   3.946   4.553   5.305
 3668SOL     MW14672   4.025   4.573   5.274
 3669SOL     OW14673   1.664   5.314   5.047
 3669SOL    HW114674   1.596   5.254   5.016
 3669SOL    HW214675   1.631   5.401   5.024
 3669SOL     MW14676   1.651   5.318   5.040
 3670SOL     OW14677   1.950   8.258   9.551
 3670SOL    HW114678   1.976   8.175   9.509
 3670SOL    HW214679   1.855   8.252   9.558
 3670SOL     MW14680   1.941   8.246   9.546
 3671SOL     OW14681   4.420   5.238   3.218
 3671SOL    HW114682   4.468   5.222   3.137
 3671SOL    HW214683   4.333   5.266   3.189
 3671SOL     MW14684   4.415   5.239   3.204
 3672SOL     OW14685   9.914   4.692   7.599
 3672SOL    HW114686  10.005   4.700   7.626
 3672SOL    HW214687   9.908   4.743   7.518
 3672SOL     MW14688   9.925   4.699   7.592
 3673SOL     OW14689   4.742   0.083   6.317
 3673SOL    HW114690   4.656   0.123   6.330
 3673SOL    HW214691   4.797   0.120   6.385
 3673SOL     MW14692   4.738   0.093   6.327
 3674SOL     OW14693   1.995   4.451   0.350
 3674SOL    HW114694   2.075   4.436   0.299
 3674SOL    HW214695   2.009   4.536   0.392
 3674SOL     MW14696   2.007   4.460   0.349
 3675SOL     OW14697   3.192   1.364   2.393
 3675SOL    HW114698   3.273   1.317   2.371
 3675SOL    HW214699   3.213   1.410   2.475
 3675SOL     MW14700   3.205   1.364   2.401
 3676SOL     OW14701   8.999   4.103   8.147
 3676SOL    HW114702   8.967   4.161   8.078
 3676SOL    HW214703   8.923   4.086   8.202
 3676SOL     MW14704   8.986   4.108   8.145
 3677SOL     OW14705   9.627   8.416   7.646
 3677SOL    HW114706   9.637   8.510   7.627
 3677SOL    HW214707   9.535   8.406   7.668
 3677SOL     MW14708   9.617   8.427   7.646
 3678SOL     OW14709   5.808   8.206   7.271
 3678SOL    HW114710   5.903   8.195   7.276
 3678SOL    HW214711   5.783   8.156   7.194
 3678SOL     MW14712   5.817   8.198   7.262
 3679SOL     OW14713   4.770   7.004   3.884
 3679SOL    HW114714   4.855   6.961   3.898
 3679SOL    HW214715   4.792   7.087   3.841
 3679SOL     MW14716   4.784   7.009   3.880
 3680SOL     OW14717   1.691   2.645   6.220
 3680SOL    HW114718   1.746   2.619   6.293
 3680SOL    HW214719   1.649   2.564   6.191
 3680SOL     MW14720   1.692   2.632   6.226
 3681SOL     OW14721   4.644   4.717   6.093
 3681SOL    HW114722   4.710   4.736   6.026
 3681SOL    HW214723   4.693   4.719   6.176
 3681SOL     MW14724   4.659   4.720   6.095
 3682SOL     OW14725   2.348   7.475   4.327
 3682SOL    HW114726   2.302   7.540   4.380
 3682SOL    HW214727   2.305   7.392   4.346
 3682SOL     MW14728   2.337   7.473   4.336
 3683SOL     OW14729   8.269   1.564   7.653
 3683SOL    HW114730   8.278   1.650   7.696
 3683SOL    HW214731   8.286   1.582   7.561
 3683SOL     MW14732   8.273   1.577   7.647
 3684SOL     OW14733   1.771   6.038   0.117
 3684SOL    HW114734   1.857   6.075   0.135
 3684SOL    HW214735   1.715   6.114   0.104
 3684SOL     MW14736   1.775   6.053   0.118
 3685SOL     OW14737   3.750   8.034   7.808
 3685SOL    HW114738   3.706   8.094   7.749
 3685SOL    HW214739   3.821   8.086   7.846
 3685SOL     MW14740   3.754   8.048   7.806
 3686SOL     OW14741   7.088   9.724   9.322
 3686SOL    HW114742   7.097   9.742   9.229
 3686SOL    HW214743   7.012   9.666   9.328
 3686SOL     MW14744   7.079   9.719   9.311
 3687SOL     OW14745   9.618   7.628   8.682
 3687SOL    HW114746   9.571   7.566   8.626
 3687SOL    HW214747   9.699   7.646   8.634
 3687SOL     MW14748   9.623   7.623   8.668
 3688SOL     OW14749   7.043   6.188   2.151
 3688SOL    HW114750   6.959   6.169   2.109
 3688SOL    HW214751   7.070   6.271   2.115
 3688SOL     MW14752   7.036   6.196   2.141
 3689SOL     OW14753   1.962   8.305   2.460
 3689SOL    HW114754   1.975   8.235   2.524
 3689SOL    HW214755   2.037   8.364   2.474
 3689SOL     MW14756   1.973   8.304   2.470
 3690SOL     OW14757   5.430   8.176   2.274
 3690SOL    HW114758   5.356   8.159   2.215
 3690SOL    HW214759   5.393   8.231   2.343
 3690SOL     MW14760   5.416   8.181   2.275
 3691SOL     OW14761   9.437   9.969   6.244
 3691SOL    HW114762   9.440   9.882   6.283
 3691SOL    HW214763   9.522   9.979   6.201
 3691SOL     MW14764   9.448   9.959   6.243
 3692SOL     OW14765   8.533   8.965   1.648
 3692SOL    HW114766   8.625   8.957   1.621
 3692SOL    HW214767   8.488   8.899   1.595
 3692SOL     MW14768   8.539   8.955   1.637
 3693SOL     OW14769   7.522   0.306   4.677
 3693SOL    HW114770   7.578   0.333   4.604
 3693SOL    HW214771   7.534   0.374   4.743
 3693SOL     MW14772   7.531   0.318   4.676
 3694SOL     OW14773   0.200   9.183   2.525
 3694SOL    HW114774   0.164   9.267   2.556
 3694SOL    HW214775   0.166   9.119   2.587
 3694SOL     MW14776   0.191   9.186   2.537
 3695SOL     OW14777   5.294   6.056   2.757
 3695SOL    HW114778   5.248   5.987   2.709
 3695SOL    HW214779   5.369   6.012   2.796
 3695SOL     MW14780   5.297   6.041   2.756
 3696SOL     OW14781   8.419   1.104   5.118
 3696SOL    HW114782   8.331   1.080   5.090
 3696SOL    HW214783   8.450   1.028   5.168
 3696SOL     MW14784   8.411   1.091   5.121
 3697SOL     OW14785  10.111   7.468   7.280
 3697SOL    HW114786  10.162   7.534   7.327
 3697SOL    HW214787  10.020   7.489   7.302
 3697SOL     MW14788  10.106   7.479   7.289
 3698SOL     OW14789   2.413   9.074   7.012
 3698SOL    HW114790   2.397   9.056   7.105
 3698SOL    HW214791   2.379   9.162   6.998
 3698SOL     MW14792   2.407   9.083   7.022
 3699SOL     OW14793   1.418   0.545   3.937
 3699SOL    HW114794   1.410   0.501   4.022
 3699SOL    HW214795   1.359   0.620   3.944
 3699SOL     MW14796   1.409   0.549   3.949
 3700SOL     OW14797   5.163   0.261   8.540
 3700SOL    HW114798   5.192   0.339   8.493
 3700SOL    HW214799   5.220   0.191   8.509
 3700SOL     MW14800   5.174   0.262   8.530
 3701SOL     OW14801   9.641   4.857   2.234
 3701SOL    HW114802   9.614   4.949   2.228
 3701SOL    HW214803   9.637   4.837   2.328
 3701SOL     MW14804   9.637   4.866   2.245
 3702SOL     OW14805   7.061   2.213   0.854
 3702SOL    HW114806   7.029   2.125   0.876
 3702SOL    HW214807   7.040   2.266   0.931
 3702SOL     MW14808   7.054   2.208   0.867
 3703SOL     OW14809   6.583   3.242   6.729
 3703SOL    HW114810   6.552   3.258   6.818
 3703SOL    HW214811   6.619   3.326   6.701
 3703SOL     MW14812   6.584   3.255   6.737
 3704SOL     OW14813   6.398   7.668   2.453
 3704SOL    HW114814   6.445   7.589   2.477
 3704SOL    HW214815   6.356   7.647   2.369
 3704SOL     MW14816   6.399   7.656   2.445
 3705SOL     OW14817   8.872   1.225   8.737
 3705SOL    HW114818   8.871   1.274   8.655
 3705SOL    HW214819   8.863   1.133   8.710
 3705SOL     MW14820   8.870   1.219   8.723
 3706SOL     OW14821   7.921  10.010   4.771
 3706SOL    HW114822   7.858  10.079   4.793
 3706SOL    HW214823   7.876   9.929   4.795
 3706SOL     MW14824   7.907  10.009   4.777
 3707SOL     OW14825   6.799   0.915   7.932
 3707SOL    HW114826   6.729   0.882   7.875
 3707SOL    HW214827   6.865   0.949   7.872
 3707SOL     MW14828   6.799   0.915   7.917
 3708SOL     OW14829   8.527   6.399   3.013
 3708SOL    HW114830   8.514   6.484   2.970
 3708SOL    HW214831   8.463   6.398   3.084
 3708SOL     MW14832   8.517   6.410   3.016
 3709SOL     OW14833   6.551   5.981   4.670
 3709SOL    HW114834   6.553   5.931   4.589
 3709SOL    HW214835   6.537   6.071   4.642
 3709SOL     MW14836   6.550   5.986   4.656
 3710SOL     OW14837   4.193   5.642   6.464
 3710SOL    HW114838   4.252   5.685   6.526
 3710SOL    HW214839   4.241   5.564   6.437
 3710SOL     MW14840   4.207   5.637   6.469
 3711SOL     OW14841   9.908   0.939   6.811
 3711SOL    HW114842   9.845   1.005   6.781
 3711SOL    HW214843   9.860   0.886   6.874
 3711SOL     MW14844   9.894   0.941   6.815
 3712SOL     OW14845   9.521   8.935   6.440
 3712SOL    HW114846   9.491   8.872   6.375
 3712SOL    HW214847   9.472   8.912   6.519
 3712SOL     MW14848   9.511   8.924   6.442
 3713SOL     OW14849   3.572   7.126   1.003
 3713SOL    HW114850   3.594   7.072   0.927
 3713SOL    HW214851   3.556   7.064   1.074
 3713SOL     MW14852   3.573   7.111   1.002
 3714SOL     OW14853   9.071   7.551   1.301
 3714SOL    HW114854   8.991   7.499   1.311
 3714SOL    HW214855   9.065   7.587   1.212
 3714SOL     MW14856   9.060   7.549   1.291
 3715SOL     OW14857   8.034   8.984   1.938
 3715SOL    HW114858   8.092   8.908   1.940
 3715SOL    HW214859   7.946   8.947   1.926
 3715SOL     MW14860   8.030   8.970   1.937
 3716SOL     OW14861   1.554   6.596   7.938
 3716SOL    HW114862   1.459   6.590   7.943
 3716SOL    HW214863   1.581   6.518   7.890
 3716SOL     MW14864   1.545   6.585   7.933
 3717SOL     OW14865   4.998   6.847   8.049
 3717SOL    HW114866   5.036   6.843   8.136
 3717SOL    HW214867   4.925   6.785   8.052
 3717SOL     MW14868   4.993   6.838   8.061
 3718SOL     OW14869   4.174   0.449   3.897
 3718SOL    HW114870   4.123   0.430   3.975
 3718SOL    HW214871   4.118   0.508   3.846
 3718SOL     MW14872   4.160   0.454   3.900
 3719SOL     OW14873   5.931   9.303   8.304
 3719SOL    HW114874   6.005   9.318   8.245
 3719SOL    HW214875   5.946   9.215   8.339
 3719SOL     MW14876   5.942   9.294   8.301
 3720SOL     OW14877   5.580   9.220   1.364
 3720SOL    HW114878   5.544   9.265   1.440
 3720SOL    HW214879   5.623   9.143   1.401
 3720SOL     MW14880   5.581   9.216   1.379
 3721SOL     OW14881   9.368   1.727   1.782
 3721SOL    HW114882   9.277   1.707   1.801
 3721SOL    HW214883   9.413   1.642   1.785
 3721SOL     MW14884   9.362   1.713   1.784
 3722SOL     OW14885   4.846   4.527   3.041
 3722SOL    HW114886   4.847   4.541   3.135
 3722SOL    HW214887   4.927   4.568   3.010
 3722SOL     MW14888   4.856   4.534   3.049
 3723SOL     OW14889   5.861   7.458   1.164
 3723SOL    HW114890   5.807   7.420   1.233
 3723SOL    HW214891   5.803   7.461   1.088
 3723SOL     MW14892   5.847   7.454   1.163
 3724SOL     OW14893   6.391   0.211   9.234
 3724SOL    HW114894   6.434   0.251   9.158
 3724SOL    HW214895   6.298   0.220   9.216
 3724SOL     MW14896   6.385   0.217   9.222
 3725SOL     OW14897   8.212   5.719   5.978
 3725SOL    HW114898   8.176   5.738   6.065
 3725SOL    HW214899   8.234   5.804   5.942
 3725SOL     MW14900   8.210   5.732   5.985
 3726SOL     OW14901   4.868   5.160   9.349
 3726SOL    HW114902   4.915   5.172   9.266
 3726SOL    HW214903   4.896   5.074   9.381
 3726SOL     MW14904   4.878   5.150   9.342
 3727SOL     OW14905   4.932   9.014   4.838
 3727SOL    HW114906   4.938   9.099   4.793
 3727SOL    HW214907   4.996   9.020   4.909
 3727SOL     MW14908   4.941   9.026   4.841
 3728SOL     OW14909   9.729   1.709   1.188
 3728SOL    HW114910   9.815   1.717   1.146
 3728SOL    HW214911   9.726   1.618   1.219
 3728SOL     MW14912   9.740   1.698   1.187
 3729SOL     OW14913   2.317   9.020   9.139
 3729SOL    HW114914   2.392   9.017   9.080
 3729SOL    HW214915   2.351   9.057   9.221
 3729SOL     MW14916   2.331   9.024   9.142
 3730SOL     OW14917   9.377   9.479   7.801
 3730SOL    HW114918   9.468   9.486   7.828
 3730SOL    HW214919   9.365   9.552   7.740
 3730SOL     MW14920   9.387   9.490   7.796
 3731SOL     OW14921   1.735   7.981   7.457
 3731SOL    HW114922   1.822   7.955   7.427
 3731SOL    HW214923   1.746   8.071   7.488
 3731SOL     MW14924   1.747   7.989   7.457
 3732SOL     OW14925   1.863   0.097   3.267
 3732SOL    HW114926   1.870   0.109   3.361
 3732SOL    HW214927   1.873   0.185   3.230
 3732SOL     MW14928   1.865   0.110   3.274
 3733SOL     OW14929   9.467   2.357   7.639
 3733SOL    HW114930   9.511   2.274   7.627
 3733SOL    HW214931   9.535   2.423   7.630
 3733SOL     MW14932   9.481   2.355   7.637
 3734SOL     OW14933   5.396   9.265   3.784
 3734SOL    HW114934   5.362   9.254   3.873
 3734SOL    HW214935   5.363   9.189   3.736
 3734SOL     MW14936   5.387   9.254   3.789
 3735SOL     OW14937   4.525   9.319   4.026
 3735SOL    HW114938   4.575   9.354   4.100
 3735SOL    HW214939   4.519   9.391   3.964
 3735SOL     MW14940   4.531   9.332   4.028
 3736SOL     OW14941   3.417   4.165   1.700
 3736SOL    HW114942   3.462   4.166   1.616
 3736SOL    HW214943   3.355   4.237   1.695
 3736SOL     MW14944   3.415   4.174   1.689
 3737SOL     OW14945   7.692   3.658   1.176
 3737SOL    HW114946   7.651   3.575   1.200
 3737SOL    HW214947   7.674   3.715   1.251
 3737SOL     MW14948   7.685   3.654   1.189
 3738SOL     OW14949   2.376   5.138   5.050
 3738SOL    HW114950   2.416   5.207   5.103
 3738SOL    HW214951   2.290   5.172   5.026
 3738SOL     MW14952   2.370   5.151   5.054
 3739SOL     OW14953   5.723   4.429   9.691
 3739SOL    HW114954   5.774   4.490   9.744
 3739SOL    HW214955   5.645   4.479   9.665
 3739SOL     MW14956   5.719   4.443   9.695
 3740SOL     OW14957   0.819   7.498   5.112
 3740SOL    HW114958   0.836   7.556   5.187
 3740SOL    HW214959   0.745   7.538   5.067
 3740SOL     MW14960   0.812   7.511   5.116
 3741SOL     OW14961   7.001   5.754   6.174
 3741SOL    HW114962   6.933   5.814   6.142
 3741SOL    HW214963   6.995   5.679   6.116
 3741SOL     MW14964   6.992   5.752   6.163
 3742SOL     OW14965   6.951   0.966   0.928
 3742SOL    HW114966   6.902   0.884   0.926
 3742SOL    HW214967   7.008   0.958   1.005
 3742SOL     MW14968   6.952   0.955   0.938
 3743SOL     OW14969   6.955   8.171   0.072
 3743SOL    HW114970   7.032   8.134   0.117
 3743SOL    HW214971   6.913   8.096   0.031
 3743SOL     MW14972   6.960   8.157   0.073
 3744SOL     OW14973   3.665   3.437   0.149
 3744SOL    HW114974   3.700   3.525   0.137
 3744SOL    HW214975   3.585   3.449   0.199
 3744SOL     MW14976   3.659   3.450   0.154
 3745SOL     OW14977   1.319   5.481   7.367
 3745SOL    HW114978   1.412   5.500   7.372
 3745SOL    HW214979   1.291   5.472   7.458
 3745SOL     MW14980   1.327   5.482   7.379
 3746SOL     OW14981   5.588   3.428   7.405
 3746SOL    HW114982   5.649   3.354   7.415
 3746SOL    HW214983   5.614   3.469   7.323
 3746SOL     MW14984   5.599   3.424   7.396
 3747SOL     OW14985   7.758   3.707   1.641
 3747SOL    HW114986   7.840   3.727   1.687
 3747SOL    HW214987   7.743   3.614   1.657
 3747SOL     MW14988   7.766   3.698   1.649
 3748SOL     OW14989   5.369   8.205   3.767
 3748SOL    HW114990   5.438   8.257   3.810
 3748SOL    HW214991   5.401   8.115   3.774
 3748SOL     MW14992   5.382   8.200   3.774
 3749SOL     OW14993   8.989   2.307   1.049
 3749SOL    HW114994   9.054   2.253   1.095
 3749SOL    HW214995   8.983   2.268   0.962
 3749SOL     MW14996   8.996   2.295   1.044
 3750SOL     OW14997   2.741   1.064   3.166
 3750SOL    HW114998   2.720   1.117   3.089
 3750SOL    HW214999   2.833   1.082   3.184
 3750SOL     MW15000   2.750   1.073   3.158
 3751SOL     OW15001   8.490   6.033   7.179
 3751SOL    HW115002   8.422   6.023   7.245
 3751SOL    HW215003   8.552   5.963   7.197
 3751SOL     MW15004   8.489   6.023   7.190
 3752SOL     OW15005   9.075   8.571   4.321
 3752SOL    HW115006   9.145   8.635   4.339
 3752SOL    HW215007   9.122   8.492   4.294
 3752SOL     MW15008   9.090   8.569   4.320
 3753SOL     OW15009   4.445   6.212   8.804
 3753SOL    HW115010   4.442   6.180   8.894
 3753SOL    HW215011   4.535   6.196   8.776
 3753SOL     MW15012   4.456   6.206   8.812
 3754SOL     OW15013   7.700   9.511   6.414
 3754SOL    HW115014   7.672   9.421   6.397
 3754SOL    HW215015   7.619   9.560   6.423
 3754SOL     MW15016   7.686   9.506   6.413
 3755SOL     OW15017   8.497   3.173   9.114
 3755SOL    HW115018   8.413   3.186   9.070
 3755SOL    HW215019   8.477   3.115   9.187
 3755SOL     MW15020   8.484   3.167   9.117
 3756SOL     OW15021   1.714   5.782   0.195
 3756SOL    HW115022   1.739   5.732   0.117
 3756SOL    HW215023   1.733   5.873   0.171
 3756SOL     MW15024   1.720   5.787   0.182
 3757SOL     OW15025   3.606   6.254   2.132
 3757SOL    HW115026   3.595   6.318   2.203
 3757SOL    HW215027   3.700   6.241   2.126
 3757SOL     MW15028   3.616   6.261   2.140
 3758SOL     OW15029   7.114   2.237   7.745
 3758SOL    HW115030   7.086   2.323   7.715
 3758SOL    HW215031   7.041   2.179   7.724
 3758SOL     MW15032   7.101   2.241   7.738
 3759SOL     OW15033   6.362   5.048   5.795
 3759SOL    HW115034   6.323   5.126   5.756
 3759SOL    HW215035   6.338   4.977   5.734
 3759SOL     MW15036   6.354   5.049   5.782
 3760SOL     OW15037   1.927   2.077   1.104
 3760SOL    HW115038   1.837   2.084   1.073
 3760SOL    HW215039   1.981   2.081   1.025
 3760SOL     MW15040   1.923   2.078   1.090
 3761SOL     OW15041   6.841   9.782   1.393
 3761SOL    HW115042   6.793   9.865   1.400
 3761SOL    HW215043   6.799   9.725   1.456
 3761SOL     MW15044   6.829   9.786   1.402
 3762SOL     OW15045   6.609   8.331   8.988
 3762SOL    HW115046   6.604   8.383   9.069
 3762SOL    HW215047   6.558   8.381   8.924
 3762SOL     MW15048   6.602   8.344   8.990
 3763SOL     OW15049   9.265   4.773   1.099
 3763SOL    HW115050   9.325   4.843   1.125
 3763SOL    HW215051   9.230   4.740   1.181
 3763SOL     MW15052   9.268   4.778   1.113
 3764SOL     OW15053   1.650   5.908   6.242
 3764SOL    HW115054   1.613   5.821   6.257
 3764SOL    HW215055   1.681   5.936   6.329
 3764SOL     MW15056   1.649   5.901   6.255
 3765SOL     OW15057   8.457   4.795   7.134
 3765SOL    HW115058   8.470   4.889   7.145
 3765SOL    HW215059   8.374   4.788   7.086
 3765SOL     MW15060   8.448   4.806   7.129
 3766SOL     OW15061   0.888   8.961   8.574
 3766SOL    HW115062   0.798   8.934   8.588
 3766SOL    HW215063   0.899   8.964   8.479
 3766SOL     MW15064   0.878   8.958   8.564
 3767SOL     OW15065   9.686   5.319   9.731
 3767SOL    HW115066   9.666   5.237   9.777
 3767SOL    HW215067   9.601   5.350   9.699
 3767SOL     MW15068   9.673   5.312   9.733
 3768SOL     OW15069   1.330   5.912   4.053
 3768SOL    HW115070   1.333   5.825   4.092
 3768SOL    HW215071   1.279   5.964   4.114
 3768SOL     MW15072   1.324   5.907   4.066
 3769SOL     OW15073   0.557   9.626   2.792
 3769SOL    HW115074   0.574   9.534   2.772
 3769SOL    HW215075   0.596   9.674   2.719
 3769SOL     MW15076   0.564   9.621   2.780
 3770SOL     OW15077   2.966   8.740   2.064
 3770SOL    HW115078   2.990   8.651   2.089
 3770SOL    HW215079   3.019   8.759   1.986
 3770SOL     MW15080   2.976   8.731   2.057
 3771SOL     OW15081   9.233   1.992   4.022
 3771SOL    HW115082   9.298   1.990   3.953
 3771SOL    HW215083   9.240   1.907   4.065
 3771SOL     MW15084   9.242   1.981   4.019
 3772SOL     OW15085   3.457   1.824   4.518
 3772SOL    HW115086   3.419   1.748   4.472
 3772SOL    HW215087   3.427   1.900   4.468
 3772SOL     MW15088   3.448   1.824   4.506
 3773SOL     OW15089   9.183   2.788   3.865
 3773SOL    HW115090   9.186   2.884   3.873
 3773SOL    HW215091   9.171   2.757   3.954
 3773SOL     MW15092   9.182   2.796   3.878
 3774SOL     OW15093   0.178   7.868   6.083
 3774SOL    HW115094   0.265   7.842   6.053
 3774SOL    HW215095   0.192   7.951   6.128
 3774SOL     MW15096   0.191   7.875   6.085
 3775SOL     OW15097   2.556   2.361   5.287
 3775SOL    HW115098   2.618   2.387   5.219
 3775SOL    HW215099   2.577   2.419   5.361
 3775SOL     MW15100   2.567   2.372   5.288
 3776SOL     OW15101   2.656   8.975   7.088
 3776SOL    HW115102   2.582   9.014   7.042
 3776SOL    HW215103   2.704   8.927   7.020
 3776SOL     MW15104   2.653   8.974   7.074
 3777SOL     OW15105   9.634   7.510   4.794
 3777SOL    HW115106   9.551   7.469   4.821
 3777SOL    HW215107   9.651   7.475   4.707
 3777SOL     MW15108   9.626   7.500   4.787
 3778SOL     OW15109   3.212   2.887   8.023
 3778SOL    HW115110   3.192   2.921   7.937
 3778SOL    HW215111   3.152   2.813   8.034
 3778SOL     MW15112   3.202   2.882   8.014
 3779SOL     OW15113   6.801   8.820   4.503
 3779SOL    HW115114   6.855   8.772   4.567
 3779SOL    HW215115   6.784   8.756   4.434
 3779SOL     MW15116   6.806   8.805   4.502
 3780SOL     OW15117   6.752   2.408   3.788
 3780SOL    HW115118   6.819   2.347   3.819
 3780SOL    HW215119   6.671   2.359   3.793
 3780SOL     MW15120   6.750   2.394   3.793
 3781SOL     OW15121   1.267   7.630   2.309
 3781SOL    HW115122   1.304   7.678   2.235
 3781SOL    HW215123   1.192   7.683   2.336
 3781SOL     MW15124   1.262   7.643   2.303
 3782SOL     OW15125   9.246   7.528   1.510
 3782SOL    HW115126   9.184   7.546   1.439
 3782SOL    HW215127   9.284   7.443   1.488
 3782SOL     MW15128   9.243   7.520   1.498
 3783SOL     OW15129   4.680  10.013   3.687
 3783SOL    HW115130   4.745  10.083   3.682
 3783SOL    HW215131   4.728   9.933   3.664
 3783SOL     MW15132   4.694  10.012   3.683
 3784SOL     OW15133  10.120   8.797   3.703
 3784SOL    HW115134  10.213   8.777   3.711
 3784SOL    HW215135  10.111   8.835   3.615
 3784SOL     MW15136  10.131   8.799   3.693
 3785SOL     OW15137   8.265   2.378   6.303
 3785SOL    HW115138   8.298   2.433   6.375
 3785SOL    HW215139   8.196   2.326   6.342
 3785SOL     MW15140   8.261   2.379   6.317
 3786SOL     OW15141  10.097   6.964   6.055
 3786SOL    HW115142  10.104   7.047   6.007
 3786SOL    HW215143  10.003   6.953   6.070
 3786SOL     MW15144  10.086   6.973   6.050
 3787SOL     OW15145   7.962   3.589   7.984
 3787SOL    HW115146   8.011   3.508   7.993
 3787SOL    HW215147   8.026   3.658   7.999
 3787SOL     MW15148   7.976   3.588   7.987
 3788SOL     OW15149   9.628   5.033   9.232
 3788SOL    HW115150   9.703   5.071   9.279
 3788SOL    HW215151   9.633   5.072   9.144
 3788SOL     MW15152   9.638   5.043   9.226
 3789SOL     OW15153   5.909   5.111   1.953
 3789SOL    HW115154   5.997   5.080   1.976
 3789SOL    HW215155   5.874   5.044   1.895
 3789SOL     MW15156   5.916   5.099   1.948
 3790SOL     OW15157   0.028   4.278   1.977
 3790SOL    HW115158   0.050   4.345   1.912
 3790SOL    HW215159   0.110   4.264   2.025
 3790SOL     MW15160   0.042   4.285   1.975
 3791SOL     OW15161   0.616   7.595   4.965
 3791SOL    HW115162   0.647   7.572   4.877
 3791SOL    HW215163   0.525   7.564   4.967
 3791SOL     MW15164   0.608   7.588   4.954
 3792SOL     OW15165   3.625   9.142   7.745
 3792SOL    HW115166   3.664   9.167   7.661
 3792SOL    HW215167   3.662   9.203   7.808
 3792SOL     MW15168   3.635   9.153   7.742
 3793SOL     OW15169   8.994   5.159   0.564
 3793SOL    HW115170   8.902   5.157   0.591
 3793SOL    HW215171   9.005   5.244   0.522
 3793SOL     MW15172   8.984   5.170   0.562
 3794SOL     OW15173   5.941   5.980   8.400
 3794SOL    HW115174   5.983   5.898   8.376
 3794SOL    HW215175   5.960   6.039   8.326
 3794SOL     MW15176   5.949   5.977   8.387
 3795SOL     OW15177   2.126   2.223   8.091
 3795SOL    HW115178   2.072   2.164   8.039
 3795SOL    HW215179   2.096   2.210   8.181
 3795SOL     MW15180   2.115   2.214   8.096
 3796SOL     OW15181   0.203   8.534   4.705
 3796SOL    HW115182   0.297   8.550   4.701
 3796SOL    HW215183   0.183   8.528   4.798
 3796SOL     MW15184   0.213   8.535   4.716
 3797SOL     OW15185   5.821   2.614   4.075
 3797SOL    HW115186   5.894   2.604   4.014
 3797SOL    HW215187   5.787   2.702   4.057
 3797SOL     MW15188   5.826   2.624   4.065
 3798SOL     OW15189   6.910   9.592   0.534
 3798SOL    HW115190   6.849   9.629   0.598
 3798SOL    HW215191   6.866   9.514   0.500
 3798SOL     MW15192   6.897   9.587   0.538
 3799SOL     OW15193   2.078   9.907   4.682
 3799SOL    HW115194   2.019   9.859   4.623
 3799SOL    HW215195   2.095   9.990   4.636
 3799SOL     MW15196   2.072   9.912   4.668
 3800SOL     OW15197   9.159   1.584   5.867
 3800SOL    HW115198   9.124   1.671   5.885
 3800SOL    HW215199   9.251   1.589   5.893
 3800SOL     MW15200   9.166   1.596   5.873
 3801SOL     OW15201   8.015   4.245   5.084
 3801SOL    HW115202   7.974   4.159   5.071
 3801SOL    HW215203   8.099   4.239   5.038
 3801SOL     MW15204   8.020   4.233   5.076
 3802SOL     OW15205   0.173   1.280   7.721
 3802SOL    HW115206   0.124   1.221   7.778
 3802SOL    HW215207   0.146   1.256   7.633
 3802SOL     MW15208   0.164   1.269   7.717
 3803SOL     OW15209   6.973   1.427   0.391
 3803SOL    HW115210   6.957   1.515   0.355
 3803SOL    HW215211   6.979   1.371   0.314
 3803SOL     MW15212   6.972   1.431   0.377
 3804SOL     OW15213   8.397   8.613   6.575
 3804SOL    HW115214   8.371   8.609   6.483
 3804SOL    HW215215   8.325   8.658   6.618
 3804SOL     MW15216   8.385   8.618   6.569
 3805SOL     OW15217   9.444   2.988   9.381
 3805SOL    HW115218   9.453   2.951   9.294
 3805SOL    HW215219   9.418   2.915   9.436
 3805SOL     MW15220   9.442   2.974   9.377
 3806SOL     OW15221   9.301   8.577   9.454
 3806SOL    HW115222   9.363   8.648   9.468
 3806SOL    HW215223   9.235   8.614   9.396
 3806SOL     MW15224   9.301   8.590   9.448
 3807SOL     OW15225   1.409   8.191   4.191
 3807SOL    HW115226   1.419   8.286   4.204
 3807SOL    HW215227   1.434   8.177   4.099
 3807SOL     MW15228   1.414   8.202   4.181
 3808SOL     OW15229   5.558   0.966   9.283
 3808SOL    HW115230   5.528   0.876   9.297
 3808SOL    HW215231   5.477   1.017   9.279
 3808SOL     MW15232   5.543   0.961   9.284
 3809SOL     OW15233   7.015   7.566   0.323
 3809SOL    HW115234   6.973   7.584   0.407
 3809SOL    HW215235   7.107   7.549   0.345
 3809SOL     MW15236   7.021   7.566   0.336
 3810SOL     OW15237   3.243   2.190   6.308
 3810SOL    HW115238   3.325   2.142   6.297
 3810SOL    HW215239   3.269   2.282   6.304
 3810SOL     MW15240   3.257   2.196   6.306
 3811SOL     OW15241   3.625   8.588   9.974
 3811SOL    HW115242   3.698   8.529   9.992
 3811SOL    HW215243   3.655   8.642   9.901
 3811SOL     MW15244   3.638   8.587   9.967
 3812SOL     OW15245   7.498   2.830   5.134
 3812SOL    HW115246   7.587   2.802   5.114
 3812SOL    HW215247   7.461   2.758   5.185
 3812SOL     MW15248   7.505   2.817   5.138
 3813SOL     OW15249   0.221   5.957   6.969
 3813SOL    HW115250   0.238   6.041   7.011
 3813SOL    HW215251   0.272   5.959   6.888
 3813SOL     MW15252   0.230   5.968   6.964
 3814SOL     OW15253   3.051   1.803   1.229
 3814SOL    HW115254   3.111   1.866   1.189
 3814SOL    HW215255   2.964   1.839   1.212
 3814SOL     MW15256   3.048   1.815   1.222
 3815SOL     OW15257   5.824   0.370  10.093
 3815SOL    HW115258   5.910   0.393  10.128
 3815SOL    HW215259   5.843   0.315  10.017
 3815SOL     MW15260   5.838   0.366  10.088
 3816SOL     OW15261   3.893   1.637   5.959
 3816SOL    HW115262   3.981   1.602   5.974
 3816SOL    HW215263   3.841   1.562   5.931
 3816SOL     MW15264   3.898   1.623   5.957
 3817SOL     OW15265   0.046   4.910   0.292
 3817SOL    HW115266   0.020   4.915   0.384
 3817SOL    HW215267   0.005   4.829   0.260
 3817SOL     MW15268   0.038   4.900   0.300
 3818SOL     OW15269   1.794   0.656   8.613
 3818SOL    HW115270   1.766   0.605   8.690
 3818SOL    HW215271   1.852   0.723   8.649
 3818SOL     MW15272   1.798   0.658   8.628
 3819SOL     OW15273   3.425   9.097   5.365
 3819SOL    HW115274   3.459   9.112   5.453
 3819SOL    HW215275   3.502   9.100   5.308
 3819SOL     MW15276   3.439   9.099   5.369
 3820SOL     OW15277   1.397   8.906   0.601
 3820SOL    HW115278   1.462   8.971   0.576
 3820SOL    HW215279   1.400   8.904   0.697
 3820SOL     MW15280   1.405   8.914   0.610
 3821SOL     OW15281   2.170   0.479   2.169
 3821SOL    HW115282   2.251   0.449   2.129
 3821SOL    HW215283   2.164   0.430   2.251
 3821SOL     MW15284   2.180   0.469   2.175
 3822SOL     OW15285   6.558   2.572   3.378
 3822SOL    HW115286   6.505   2.649   3.399
 3822SOL    HW215287   6.546   2.560   3.283
 3822SOL     MW15288   6.549   2.580   3.368
 3823SOL     OW15289   4.935   4.038  10.162
 3823SOL    HW115290   4.863   4.020  10.102
 3823SOL    HW215291   4.898   4.098  10.227
 3823SOL     MW15292   4.921   4.043  10.163
 3824SOL     OW15293   1.967   0.912   4.218
 3824SOL    HW115294   2.023   0.923   4.141
 3824SOL    HW215295   1.879   0.902   4.181
 3824SOL     MW15296   1.962   0.912   4.203
 3825SOL     OW15297   9.412   0.048   1.546
 3825SOL    HW115298   9.493   0.002   1.567
 3825SOL    HW215299   9.382   0.007   1.465
 3825SOL     MW15300   9.419   0.037   1.538
 3826SOL     OW15301   0.092   9.980   6.611
 3826SOL    HW115302   0.033  10.046   6.646
 3826SOL    HW215303   0.095   9.912   6.678
 3826SOL     MW15304   0.085   9.979   6.624
 3827SOL     OW15305   4.307   8.807   0.450
 3827SOL    HW115306   4.336   8.896   0.468
 3827SOL    HW215307   4.252   8.814   0.371
 3827SOL     MW15308   4.303   8.819   0.442
 3828SOL     OW15309   2.201   7.579   6.154
 3828SOL    HW115310   2.282   7.536   6.183
 3828SOL    HW215311   2.137   7.555   6.221
 3828SOL     MW15312   2.203   7.570   6.166
 3829SOL     OW15313   5.455   7.304   9.214
 3829SOL    HW115314   5.516   7.231   9.224
 3829SOL    HW215315   5.431   7.303   9.121
 3829SOL     MW15316   5.460   7.295   9.203
 3830SOL     OW15317   3.979   8.023   5.525
 3830SOL    HW115318   4.000   7.931   5.514
 3830SOL    HW215319   4.014   8.046   5.611
 3830SOL     MW15320   3.986   8.014   5.534
 3831SOL     OW15321   6.055   4.602   8.629
 3831SOL    HW115322   6.084   4.686   8.664
 3831SOL    HW215323   6.102   4.537   8.681
 3831SOL     MW15324   6.065   4.605   8.640
 3832SOL     OW15325   0.220   2.404   5.435
 3832SOL    HW115326   0.285   2.419   5.503
 3832SOL    HW215327   0.255   2.332   5.383
 3832SOL     MW15328   0.232   2.396   5.437
 3833SOL     OW15329   8.242   9.986   9.227
 3833SOL    HW115330   8.213  10.042   9.298
 3833SOL    HW215331   8.167   9.983   9.167
 3833SOL     MW15332   8.229   9.993   9.228
 3834SOL     OW15333   7.766   6.601   5.548
 3834SOL    HW115334   7.814   6.650   5.480
 3834SOL    HW215335   7.834   6.551   5.593
 3834SOL     MW15336   7.781   6.601   5.545
 3835SOL     OW15337   2.959   0.969   0.995
 3835SOL    HW115338   2.894   0.984   1.064
 3835SOL    HW215339   2.930   1.024   0.923
 3835SOL     MW15340   2.947   0.978   0.995
 3836SOL     OW15341   3.696   5.706   6.553
 3836SOL    HW115342   3.779   5.661   6.541
 3836SOL    HW215343   3.714   5.771   6.621
 3836SOL     MW15344   3.709   5.709   6.560
 3837SOL     OW15345   6.600   5.331   4.235
 3837SOL    HW115346   6.554   5.281   4.304
 3837SOL    HW215347   6.637   5.264   4.178
 3837SOL     MW15348   6.599   5.316   4.237
 3838SOL     OW15349   0.046   1.447   5.366
 3838SOL    HW115350  -0.008   1.386   5.317
 3838SOL    HW215351   0.123   1.396   5.392
 3838SOL     MW15352   0.049   1.433   5.363
 3839SOL     OW15353   1.673   7.744   6.122
 3839SOL    HW115354   1.728   7.709   6.051
 3839SOL    HW215355   1.659   7.836   6.098
 3839SOL     MW15356   1.679   7.752   6.110
 3840SOL     OW15357   8.296   6.477   6.663
 3840SOL    HW115358   8.352   6.400   6.658
 3840SOL    HW215359   8.345   6.546   6.618
 3840SOL     MW15360   8.309   6.476   6.656
 3841SOL     OW15361   7.017   7.995   7.461
 3841SOL    HW115362   6.985   8.057   7.527
 3841SOL    HW215363   7.095   7.956   7.501
 3841SOL     MW15364   7.023   7.998   7.475
 3842SOL     OW15365   9.143   6.654   6.753
 3842SOL    HW115366   9.082   6.631   6.822
 3842SOL    HW215367   9.117   6.743   6.726
 3842SOL     MW15368   9.132   6.663   6.758
 3843SOL     OW15369   2.546   3.141   0.250
 3843SOL    HW115370   2.540   3.190   0.168
 3843SOL    HW215371   2.600   3.196   0.307
 3843SOL     MW15372   2.552   3.155   0.246
 3844SOL     OW15373   5.617   9.423   3.788
 3844SOL    HW115374   5.538   9.369   3.777
 3844SOL    HW215375   5.683   9.363   3.822
 3844SOL     MW15376   5.615   9.409   3.791
 3845SOL     OW15377   0.602   0.730   5.984
 3845SOL    HW115378   0.551   0.810   5.977
 3845SOL    HW215379   0.563   0.683   6.058
 3845SOL     MW15380   0.590   0.734   5.993
 3846SOL     OW15381   2.930   5.652   7.539
 3846SOL    HW115382   2.903   5.670   7.449
 3846SOL    HW215383   2.947   5.738   7.576
 3846SOL     MW15384   2.929   5.665   7.532
 3847SOL     OW15385   1.720   3.029   1.439
 3847SOL    HW115386   1.712   3.112   1.486
 3847SOL    HW215387   1.631   2.996   1.434
 3847SOL     MW15388   1.708   3.035   1.444
 3848SOL     OW15389   6.762   4.523   4.853
 3848SOL    HW115390   6.750   4.523   4.948
 3848SOL    HW215391   6.779   4.431   4.831
 3848SOL     MW15392   6.762   4.511   4.863
 3849SOL     OW15393   1.499   3.532   0.026
 3849SOL    HW115394   1.482   3.563  -0.062
 3849SOL    HW215395   1.440   3.583   0.082
 3849SOL     MW15396   1.489   3.542   0.022
 3850SOL     OW15397   9.919   2.914   3.285
 3850SOL    HW115398   9.863   2.928   3.209
 3850SOL    HW215399   9.861   2.878   3.352
 3850SOL     MW15400   9.905   2.911   3.283
 3851SOL     OW15401   8.369   8.510   6.061
 3851SOL    HW115402   8.318   8.590   6.053
 3851SOL    HW215403   8.454   8.531   6.022
 3851SOL     MW15404   8.373   8.523   6.055
 3852SOL     OW15405   1.824   2.283   0.079
 3852SOL    HW115406   1.736   2.255   0.057
 3852SOL    HW215407   1.835   2.366   0.033
 3852SOL     MW15408   1.814   2.290   0.071
 3853SOL     OW15409   4.890   9.839   1.225
 3853SOL    HW115410   4.895   9.872   1.135
 3853SOL    HW215411   4.882   9.744   1.216
 3853SOL     MW15412   4.890   9.831   1.213
 3854SOL     OW15413  10.088   3.130   3.331
 3854SOL    HW115414  10.021   3.062   3.318
 3854SOL    HW215415  10.146   3.094   3.398
 3854SOL     MW15416  10.087   3.117   3.338
 3855SOL     OW15417   4.861   5.702   1.071
 3855SOL    HW115418   4.857   5.750   0.989
 3855SOL    HW215419   4.913   5.757   1.129
 3855SOL     MW15420   4.867   5.715   1.068
 3856SOL     OW15421   9.122   0.595   5.581
 3856SOL    HW115422   9.150   0.685   5.601
 3856SOL    HW215423   9.201   0.553   5.547
 3856SOL     MW15424   9.136   0.601   5.579
 3857SOL     OW15425   9.891   9.263   0.722
 3857SOL    HW115426   9.840   9.262   0.803
 3857SOL    HW215427   9.893   9.171   0.694
 3857SOL     MW15428   9.885   9.251   0.729
 3858SOL     OW15429   3.355   8.737   2.634
 3858SOL    HW115430   3.320   8.826   2.625
 3858SOL    HW215431   3.387   8.714   2.547
 3858SOL     MW15432   3.355   8.746   2.622
 3859SOL     OW15433   6.559   6.931   6.589
 3859SOL    HW115434   6.571   6.836   6.587
 3859SOL    HW215435   6.485   6.944   6.648
 3859SOL     MW15436   6.551   6.920   6.596
 3860SOL     OW15437   2.124   1.434   3.454
 3860SOL    HW115438   2.155   1.346   3.432
 3860SOL    HW215439   2.202   1.481   3.485
 3860SOL     MW15440   2.138   1.429   3.455
 3861SOL     OW15441   3.969   0.144   5.415
 3861SOL    HW115442   3.927   0.191   5.343
 3861SOL    HW215443   4.059   0.176   5.414
 3861SOL     MW15444   3.975   0.154   5.405
 3862SOL     OW15445   4.877   3.172   6.080
 3862SOL    HW115446   4.828   3.250   6.055
 3862SOL    HW215447   4.818   3.124   6.138
 3862SOL     MW15448   4.863   3.176   6.084
 3863SOL     OW15449   6.846   0.033   9.830
 3863SOL    HW115450   6.803   0.040   9.915
 3863SOL    HW215451   6.855   0.123   9.800
 3863SOL     MW15452   6.842   0.045   9.837
 3864SOL     OW15453   2.059   5.647   9.145
 3864SOL    HW115454   2.111   5.674   9.221
 3864SOL    HW215455   1.975   5.690   9.158
 3864SOL     MW15456   2.055   5.656   9.157
 3865SOL     OW15457   8.412   6.472   5.684
 3865SOL    HW115458   8.414   6.405   5.615
 3865SOL    HW215459   8.502   6.503   5.691
 3865SOL     MW15460   8.424   6.467   5.676
 3866SOL     OW15461   9.118   9.827   0.374
 3866SOL    HW115462   9.094   9.781   0.454
 3866SOL    HW215463   9.161   9.907   0.404
 3866SOL     MW15464   9.120   9.832   0.388
 3867SOL     OW15465   9.845   5.073   9.403
 3867SOL    HW115466   9.929   5.041   9.371
 3867SOL    HW215467   9.800   4.994   9.435
 3867SOL     MW15468   9.850   5.059   9.403
 3868SOL     OW15469   3.400   2.985   3.477
 3868SOL    HW115470   3.344   2.911   3.453
 3868SOL    HW215471   3.441   2.958   3.559
 3868SOL     MW15472   3.398   2.972   3.485
 3869SOL     OW15473   3.421   0.133   1.591
 3869SOL    HW115474   3.406   0.087   1.509
 3869SOL    HW215475   3.421   0.065   1.658
 3869SOL     MW15476   3.419   0.119   1.589
 3870SOL     OW15477   1.106   0.361   9.146
 3870SOL    HW115478   1.128   0.269   9.158
 3870SOL    HW215479   1.053   0.363   9.066
 3870SOL     MW15480   1.102   0.350   9.137
 3871SOL     OW15481   9.780   6.960   8.093
 3871SOL    HW115482   9.858   7.017   8.094
 3871SOL    HW215483   9.715   7.009   8.043
 3871SOL     MW15484   9.782   6.974   8.087
 3872SOL     OW15485   9.486   8.825   5.056
 3872SOL    HW115486   9.544   8.810   5.131
 3872SOL    HW215487   9.522   8.771   4.986
 3872SOL     MW15488   9.498   8.816   5.057
 3873SOL     OW15489   0.238   2.391   3.426
 3873SOL    HW115490   0.312   2.411   3.483
 3873SOL    HW215491   0.176   2.344   3.483
 3873SOL     MW15492   0.239   2.388   3.441
 3874SOL     OW15493   2.483   1.544   7.887
 3874SOL    HW115494   2.547   1.517   7.822
 3874SOL    HW215495   2.430   1.611   7.843
 3874SOL     MW15496   2.484   1.549   7.873
 3875SOL     OW15497   0.609   9.363   2.738
 3875SOL    HW115498   0.558   9.307   2.679
 3875SOL    HW215499   0.644   9.303   2.803
 3875SOL     MW15500   0.607   9.348   2.739
 3876SOL     OW15501   6.239   6.560   2.161
 3876SOL    HW115502   6.144   6.566   2.161
 3876SOL    HW215503   6.266   6.595   2.246
 3876SOL     MW15504   6.230   6.565   2.172
 3877SOL     OW15505   9.954   2.387   8.578
 3877SOL    HW115506  10.035   2.363   8.534
 3877SOL    HW215507   9.890   2.395   8.507
 3877SOL     MW15508   9.956   2.385   8.563
 3878SOL     OW15509   0.540   9.526   3.794
 3878SOL    HW115510   0.584   9.441   3.792
 3878SOL    HW215511   0.469   9.517   3.731
 3878SOL     MW15512   0.537   9.514   3.785
 3879SOL     OW15513   8.134   6.459   7.167
 3879SOL    HW115514   8.084   6.540   7.160
 3879SOL    HW215515   8.154   6.435   7.076
 3879SOL     MW15516   8.130   6.466   7.154
 3880SOL     OW15517   1.278   5.471  10.001
 3880SOL    HW115518   1.281   5.566   9.992
 3880SOL    HW215519   1.234   5.441   9.921
 3880SOL     MW15520   1.272   5.479   9.989
 3881SOL     OW15521   3.248   5.492   7.156
 3881SOL    HW115522   3.293   5.521   7.077
 3881SOL    HW215523   3.314   5.441   7.204
 3881SOL     MW15524   3.262   5.489   7.152
 3882SOL     OW15525   5.635   8.908   8.912
 3882SOL    HW115526   5.623   8.949   8.827
 3882SOL    HW215527   5.554   8.858   8.925
 3882SOL     MW15528   5.623   8.907   8.903
 3883SOL     OW15529   7.004   3.354   2.559
 3883SOL    HW115530   7.058   3.313   2.492
 3883SOL    HW215531   6.939   3.287   2.582
 3883SOL     MW15532   7.002   3.340   2.553
 3884SOL     OW15533   2.237   9.980   0.201
 3884SOL    HW115534   2.264   9.963   0.111
 3884SOL    HW215535   2.164  10.041   0.193
 3884SOL     MW15536   2.231   9.986   0.188
 3885SOL     OW15537   1.754   4.503   0.225
 3885SOL    HW115538   1.837   4.478   0.267
 3885SOL    HW215539   1.766   4.478   0.134
 3885SOL     MW15540   1.766   4.497   0.219
 3886SOL     OW15541   7.692   5.488   2.429
 3886SOL    HW115542   7.616   5.431   2.422
 3886SOL    HW215543   7.679   5.535   2.511
 3886SOL     MW15544   7.681   5.486   2.439
 3887SOL     OW15545   9.734   4.674   2.050
 3887SOL    HW115546   9.697   4.733   2.116
 3887SOL    HW215547   9.772   4.732   1.985
 3887SOL     MW15548   9.734   4.689   2.050
 3888SOL     OW15549   9.189   1.489   4.189
 3888SOL    HW115550   9.217   1.465   4.278
 3888SOL    HW215551   9.093   1.495   4.196
 3888SOL     MW15552   9.180   1.487   4.202
 3889SOL     OW15553   6.958   2.578   8.330
 3889SOL    HW115554   6.896   2.647   8.353
 3889SOL    HW215555   7.042   2.623   8.324
 3889SOL     MW15556   6.961   2.593   8.332
 3890SOL     OW15557   0.189   9.779   6.215
 3890SOL    HW115558   0.257   9.711   6.215
 3890SOL    HW215559   0.112   9.736   6.177
 3890SOL     MW15560   0.188   9.765   6.210
 3891SOL     OW15561  10.098   0.555   4.318
 3891SOL    HW115562  10.113   0.461   4.327
 3891SOL    HW215563  10.037   0.562   4.245
 3891SOL     MW15564  10.092   0.544   4.310
 3892SOL     OW15565   5.339   6.087   5.592
 3892SOL    HW115566   5.318   6.175   5.560
 3892SOL    HW215567   5.288   6.078   5.672
 3892SOL     MW15568   5.330   6.097   5.598
 3893SOL     OW15569   4.004   1.985   8.454
 3893SOL    HW115570   3.916   1.977   8.417
 3893SOL    HW215571   4.008   2.075   8.488
 3893SOL     MW15572   3.993   1.996   8.453
 3894SOL     OW15573   7.960   6.447   5.670
 3894SOL    HW115574   7.924   6.362   5.695
 3894SOL    HW215575   8.035   6.459   5.727
 3894SOL     MW15576   7.965   6.437   5.680
 3895SOL     OW15577   7.959   0.148   6.383
 3895SOL    HW115578   7.956   0.221   6.445
 3895SOL    HW215579   8.052   0.132   6.369
 3895SOL     MW15580   7.970   0.156   6.389
 3896SOL     OW15581   3.443   2.740   6.839
 3896SOL    HW115582   3.415   2.809   6.899
 3896SOL    HW215583   3.376   2.739   6.771
 3896SOL     MW15584   3.430   2.749   6.838
 3897SOL     OW15585   7.091   9.115   0.097
 3897SOL    HW115586   7.167   9.152   0.052
 3897SOL    HW215587   7.096   9.021   0.080
 3897SOL     MW15588   7.102   9.108   0.089
 3898SOL     OW15589   8.141   5.557   7.496
 3898SOL    HW115590   8.093   5.640   7.507
 3898SOL    HW215591   8.133   5.513   7.580
 3898SOL     MW15592   8.134   5.562   7.508
 3899SOL     OW15593   7.618   3.948   0.041
 3899SOL    HW115594   7.631   3.864   0.084
 3899SOL    HW215595   7.562   3.998   0.101
 3899SOL     MW15596   7.612   3.944   0.054
 3900SOL     OW15597   5.372   9.262   7.108
 3900SOL    HW115598   5.288   9.292   7.142
 3900SOL    HW215599   5.410   9.211   7.180
 3900SOL     MW15600   5.366   9.259   7.122
 3901SOL     OW15601   4.497   9.687   3.602
 3901SOL    HW115602   4.474   9.647   3.519
 3901SOL    HW215603   4.469   9.778   3.594
 3901SOL     MW15604   4.491   9.694   3.591
 3902SOL     OW15605   3.913   8.474   6.523
 3902SOL    HW115606   3.996   8.448   6.483
 3902SOL    HW215607   3.893   8.403   6.584
 3902SOL     MW15608   3.921   8.462   6.526
 3903SOL     OW15609   1.710   0.210   5.560
 3903SOL    HW115610   1.678   0.187   5.648
 3903SOL    HW215611   1.747   0.128   5.526
 3903SOL     MW15612   1.711   0.196   5.567
 3904SOL     OW15613   2.905   8.886   0.792
 3904SOL    HW115614   2.927   8.871   0.700
 3904SOL    HW215615   2.979   8.938   0.825
 3904SOL     MW15616   2.918   8.891   0.784
 3905SOL     OW15617   9.103   4.111   5.788
 3905SOL    HW115618   9.127   4.148   5.873
 3905SOL    HW215619   9.181   4.062   5.760
 3905SOL     MW15620   9.116   4.109   5.795
 3906SOL     OW15621   4.634  10.071   4.379
 3906SOL    HW115622   4.592  10.029   4.303
 3906SOL    HW215623   4.574  10.141   4.404
 3906SOL     MW15624   4.621  10.074   4.372
 3907SOL     OW15625   6.791   1.690   9.919
 3907SOL    HW115626   6.861   1.638   9.878
 3907SOL    HW215627   6.817   1.696  10.011
 3907SOL     MW15628   6.804   1.684   9.926
 3908SOL     OW15629   0.751   8.773   6.332
 3908SOL    HW115630   0.750   8.800   6.424
 3908SOL    HW215631   0.832   8.722   6.324
 3908SOL     MW15632   0.761   8.770   6.343
 3909SOL     OW15633   7.679   6.875   2.200
 3909SOL    HW115634   7.705   6.966   2.194
 3909SOL    HW215635   7.667   6.859   2.294
 3909SOL     MW15636   7.681   6.884   2.211
 3910SOL     OW15637   5.155   8.268   8.043
 3910SOL    HW115638   5.111   8.353   8.056
 3910SOL    HW215639   5.119   8.212   8.111
 3910SOL     MW15640   5.145   8.272   8.053
 3911SOL     OW15641   1.684   0.765   7.062
 3911SOL    HW115642   1.769   0.764   7.016
 3911SOL    HW215643   1.619   0.756   6.992
 3911SOL     MW15644   1.687   0.763   7.047
 3912SOL     OW15645   8.065   2.216   6.383
 3912SOL    HW115646   8.062   2.175   6.297
 3912SOL    HW215647   8.004   2.164   6.436
 3912SOL     MW15648   8.057   2.204   6.379
 3913SOL     OW15649   9.076   7.695   9.366
 3913SOL    HW115650   9.161   7.653   9.356
 3913SOL    HW215651   9.096   7.784   9.396
 3913SOL     MW15652   9.089   7.701   9.369
 3914SOL     OW15653   3.867   0.851   1.438
 3914SOL    HW115654   3.780   0.863   1.401
 3914SOL    HW215655   3.920   0.922   1.401
 3914SOL     MW15656   3.863   0.861   1.429
 3915SOL     OW15657   4.023   0.424   4.125
 3915SOL    HW115658   4.028   0.513   4.162
 3915SOL    HW215659   4.031   0.367   4.202
 3915SOL     MW15660   4.025   0.428   4.140
 3916SOL     OW15661   5.626   4.180   1.088
 3916SOL    HW115662   5.579   4.227   1.157
 3916SOL    HW215663   5.641   4.246   1.020
 3916SOL     MW15664   5.622   4.194   1.088
 3917SOL     OW15665   2.789   9.617   6.510
 3917SOL    HW115666   2.838   9.609   6.592
 3917SOL    HW215667   2.842   9.571   6.446
 3917SOL     MW15668   2.802   9.610   6.513
 3918SOL     OW15669   0.299   8.086  10.129
 3918SOL    HW115670   0.338   8.066  10.044
 3918SOL    HW215671   0.309   8.005  10.179
 3918SOL     MW15672   0.305   8.073  10.124
 3919SOL     OW15673   0.406   1.609   3.128
 3919SOL    HW115674   0.429   1.674   3.194
 3919SOL    HW215675   0.356   1.543   3.175
 3919SOL     MW15676   0.403   1.609   3.142
 3920SOL     OW15677   6.212   6.076   5.411
 3920SOL    HW115678   6.220   6.006   5.346
 3920SOL    HW215679   6.154   6.140   5.370
 3920SOL     MW15680   6.206   6.075   5.397
 3921SOL     OW15681   1.314   3.086   0.094
 3921SOL    HW115682   1.346   3.173   0.118
 3921SOL    HW215683   1.252   3.063   0.163
 3921SOL     MW15684   1.310   3.094   0.106
 3922SOL     OW15685   6.514   2.698   8.874
 3922SOL    HW115686   6.473   2.695   8.960
 3922SOL    HW215687   6.441   2.706   8.812
 3922SOL     MW15688   6.499   2.699   8.877
 3923SOL     OW15689   0.057   2.301   3.613
 3923SOL    HW115690  -0.023   2.339   3.577
 3923SOL    HW215691   0.094   2.371   3.667
 3923SOL     MW15692   0.052   2.315   3.615
 3924SOL     OW15693   5.995   4.189   6.226
 3924SOL    HW115694   5.989   4.172   6.132
 3924SOL    HW215695   5.955   4.275   6.237
 3924SOL     MW15696   5.989   4.198   6.215
 3925SOL     OW15697   2.617   7.179   3.700
 3925SOL    HW115698   2.610   7.274   3.710
 3925SOL    HW215699   2.709   7.163   3.683
 3925SOL     MW15700   2.628   7.189   3.700
 3926SOL     OW15701   9.995   8.551   8.463
 3926SOL    HW115702   9.960   8.640   8.462
 3926SOL    HW215703  10.033   8.539   8.376
 3926SOL     MW15704   9.995   8.561   8.452
 3927SOL     OW15705   3.759   9.477   6.808
 3927SOL    HW115706   3.757   9.572   6.818
 3927SOL    HW215707   3.748   9.462   6.714
 3927SOL     MW15708   3.758   9.487   6.798
 3928SOL     OW15709   3.197   8.981   7.981
 3928SOL    HW115710   3.174   8.950   7.893
 3928SOL    HW215711   3.278   9.030   7.969
 3928SOL     MW15712   3.204   8.983   7.968
 3929SOL     OW15713   6.335   8.322   1.496
 3929SOL    HW115714   6.309   8.300   1.585
 3929SOL    HW215715   6.420   8.279   1.485
 3929SOL     MW15716   6.343   8.313   1.506
 3930SOL     OW15717   3.236   9.604   8.825
 3930SOL    HW115718   3.227   9.614   8.920
 3930SOL    HW215719   3.258   9.692   8.793
 3930SOL     MW15720   3.237   9.616   8.833
 3931SOL     OW15721   5.223   8.498   9.626
 3931SOL    HW115722   5.237   8.403   9.627
 3931SOL    HW215723   5.228   8.524   9.718
 3931SOL     MW15724   5.226   8.489   9.638
 3932SOL     OW15725   6.579   0.066   8.955
 3932SOL    HW115726   6.594   0.150   8.999
 3932SOL    HW215727   6.523   0.017   9.016
 3932SOL     MW15728   6.574   0.071   8.969
 3933SOL     OW15729   6.314   9.539   7.775
 3933SOL    HW115730   6.407   9.523   7.759
 3933SOL    HW215731   6.282   9.457   7.814
 3933SOL     MW15732   6.322   9.526   7.778
 3934SOL     OW15733   9.489   1.488   1.800
 3934SOL    HW115734   9.538   1.454   1.725
 3934SOL    HW215735   9.552   1.489   1.872
 3934SOL     MW15736   9.503   1.484   1.800
 3935SOL     OW15737   4.863   8.404   5.979
 3935SOL    HW115738   4.898   8.395   6.068
 3935SOL    HW215739   4.888   8.323   5.935
 3935SOL     MW15740   4.871   8.393   5.985
 3936SOL     OW15741   2.020   9.336   7.973
 3936SOL    HW115742   1.932   9.367   7.954
 3936SOL    HW215743   2.077   9.407   7.943
 3936SOL     MW15744   2.016   9.349   7.967
 3937SOL     OW15745   4.072   7.586   8.903
 3937SOL    HW115746   4.139   7.562   8.967
 3937SOL    HW215747   4.112   7.568   8.818
 3937SOL     MW15748   4.086   7.580   8.901
 3938SOL     OW15749   7.955   6.829   1.429
 3938SOL    HW115750   7.862   6.820   1.449
 3938SOL    HW215751   7.981   6.910   1.472
 3938SOL     MW15752   7.947   6.838   1.437
 3939SOL     OW15753   7.691   0.748   0.869
 3939SOL    HW115754   7.722   0.686   0.802
 3939SOL    HW215755   7.763   0.754   0.931
 3939SOL     MW15756   7.704   0.741   0.868
 3940SOL     OW15757   2.911   4.209   3.192
 3940SOL    HW115758   2.910   4.157   3.111
 3940SOL    HW215759   2.875   4.150   3.258
 3940SOL     MW15760   2.906   4.195   3.190
 3941SOL     OW15761   6.029   3.264   3.331
 3941SOL    HW115762   6.084   3.326   3.284
 3941SOL    HW215763   5.983   3.316   3.396
 3941SOL     MW15764   6.030   3.278   3.333
 3942SOL     OW15765   6.981   9.599   4.781
 3942SOL    HW115766   6.980   9.506   4.759
 3942SOL    HW215767   7.021   9.602   4.868
 3942SOL     MW15768   6.986   9.587   4.790
 3943SOL     OW15769   5.033   0.629   4.705
 3943SOL    HW115770   5.077   0.630   4.790
 3943SOL    HW215771   4.989   0.544   4.701
 3943SOL     MW15772   5.033   0.619   4.715
 3944SOL     OW15773   5.850   1.385   7.769
 3944SOL    HW115774   5.877   1.468   7.730
 3944SOL    HW215775   5.821   1.332   7.695
 3944SOL     MW15776   5.850   1.389   7.755
 3945SOL     OW15777   6.134   2.519   6.143
 3945SOL    HW115778   6.165   2.496   6.055
 3945SOL    HW215779   6.206   2.493   6.201
 3945SOL     MW15780   6.147   2.513   6.139
 3946SOL     OW15781   6.930   3.347   9.251
 3946SOL    HW115782   6.898   3.279   9.310
 3946SOL    HW215783   6.894   3.428   9.286
 3946SOL     MW15784   6.921   3.348   9.263
 3947SOL     OW15785   9.142   3.596   4.732
 3947SOL    HW115786   9.142   3.677   4.681
 3947SOL    HW215787   9.056   3.595   4.776
 3947SOL     MW15788   9.131   3.607   4.731
 3948SOL     OW15789   8.462  10.181   6.251
 3948SOL    HW115790   8.452  10.169   6.157
 3948SOL    HW215791   8.521  10.110   6.278
 3948SOL     MW15792   8.469  10.170   6.242
 3949SOL     OW15793   5.274   7.041   6.367
 3949SOL    HW115794   5.330   6.993   6.428
 3949SOL    HW215795   5.335   7.092   6.314
 3949SOL     MW15796   5.289   7.041   6.368
 3950SOL     OW15797   5.829   4.181   2.769
 3950SOL    HW115798   5.858   4.093   2.791
 3950SOL    HW215799   5.788   4.172   2.682
 3950SOL     MW15800   5.828   4.168   2.760
 3951SOL     OW15801   8.574   0.223   7.159
 3951SOL    HW115802   8.666   0.195   7.154
 3951SOL    HW215803   8.563   0.283   7.085
 3951SOL     MW15804   8.584   0.227   7.149
 3952SOL     OW15805   0.067   2.373   4.534
 3952SOL    HW115806   0.085   2.290   4.580
 3952SOL    HW215807   0.082   2.440   4.600
 3952SOL     MW15808   0.071   2.371   4.548
 3953SOL     OW15809   4.712   2.575   2.153
 3953SOL    HW115810   4.795   2.623   2.157
 3953SOL    HW215811   4.660   2.610   2.225
 3953SOL     MW15812   4.716   2.586   2.163
 3954SOL     OW15813   1.373   5.626   2.585
 3954SOL    HW115814   1.368   5.548   2.529
 3954SOL    HW215815   1.430   5.686   2.538
 3954SOL     MW15816   1.379   5.624   2.572
 3955SOL     OW15817   0.706   4.934   6.281
 3955SOL    HW115818   0.708   4.963   6.372
 3955SOL    HW215819   0.724   4.840   6.285
 3955SOL     MW15820   0.709   4.926   6.293
 3956SOL     OW15821   0.189   4.258   0.329
 3956SOL    HW115822   0.242   4.212   0.264
 3956SOL    HW215823   0.109   4.281   0.281
 3956SOL     MW15824   0.185   4.255   0.315
 3957SOL     OW15825   9.216   0.921   6.661
 3957SOL    HW115826   9.245   0.982   6.593
 3957SOL    HW215827   9.297   0.890   6.700
 3957SOL     MW15828   9.230   0.925   6.657
 3958SOL     OW15829   2.113   9.521   2.719
 3958SOL    HW115830   2.106   9.602   2.668
 3958SOL    HW215831   2.062   9.539   2.798
 3958SOL     MW15832   2.105   9.534   2.722
 3959SOL     OW15833   6.095   0.541   7.815
 3959SOL    HW115834   6.145   0.466   7.848
 3959SOL    HW215835   6.034   0.562   7.886
 3959SOL     MW15836   6.094   0.534   7.828
 3960SOL     OW15837   0.534   7.188   7.869
 3960SOL    HW115838   0.460   7.223   7.919
 3960SOL    HW215839   0.591   7.150   7.935
 3960SOL     MW15840   0.531   7.188   7.884
 3961SOL     OW15841   9.135   2.715   4.128
 3961SOL    HW115842   9.043   2.715   4.155
 3961SOL    HW215843   9.182   2.675   4.202
 3961SOL     MW15844   9.129   2.710   4.141
 3962SOL     OW15845   3.134   4.021   0.773
 3962SOL    HW115846   3.079   4.088   0.811
 3962SOL    HW215847   3.211   4.068   0.740
 3962SOL     MW15848   3.137   4.035   0.773
 3963SOL     OW15849   8.508   9.765   4.463
 3963SOL    HW115850   8.538   9.776   4.553
 3963SOL    HW215851   8.413   9.754   4.470
 3963SOL     MW15852   8.500   9.765   4.475
 3964SOL     OW15853   4.181   3.584   1.343
 3964SOL    HW115854   4.162   3.626   1.427
 3964SOL    HW215855   4.150   3.494   1.354
 3964SOL     MW15856   4.175   3.577   1.355
 3965SOL     OW15857   9.589   8.310   2.886
 3965SOL    HW115858   9.518   8.331   2.825
 3965SOL    HW215859   9.580   8.375   2.956
 3965SOL     MW15860   9.579   8.321   2.887
 3966SOL     OW15861   2.423   2.169   4.930
 3966SOL    HW115862   2.385   2.155   4.843
 3966SOL    HW215863   2.518   2.167   4.915
 3966SOL     MW15864   2.431   2.167   4.917
 3967SOL     OW15865   3.270   5.185   8.638
 3967SOL    HW115866   3.263   5.130   8.560
 3967SOL    HW215867   3.218   5.262   8.618
 3967SOL     MW15868   3.263   5.187   8.625
 3968SOL     OW15869   0.545   7.702   0.173
 3968SOL    HW115870   0.470   7.757   0.151
 3968SOL    HW215871   0.592   7.692   0.090
 3968SOL     MW15872   0.541   7.708   0.159
 3969SOL     OW15873   0.568   3.332   6.381
 3969SOL    HW115874   0.494   3.277   6.406
 3969SOL    HW215875   0.561   3.341   6.286
 3969SOL     MW15876   0.558   3.326   6.372
 3970SOL     OW15877   8.470   6.633   2.893
 3970SOL    HW115878   8.450   6.716   2.938
 3970SOL    HW215879   8.406   6.627   2.823
 3970SOL     MW15880   8.460   6.643   2.890
 3971SOL     OW15881   3.909   4.990   4.714
 3971SOL    HW115882   3.902   5.001   4.620
 3971SOL    HW215883   3.821   5.009   4.747
 3971SOL     MW15884   3.897   4.993   4.707
 3972SOL     OW15885   0.710   3.252   1.838
 3972SOL    HW115886   0.777   3.320   1.834
 3972SOL    HW215887   0.745   3.189   1.902
 3972SOL     MW15888   0.723   3.252   1.846
 3973SOL     OW15889   6.185   8.660   7.776
 3973SOL    HW115890   6.172   8.582   7.829
 3973SOL    HW215891   6.098   8.699   7.769
 3973SOL     MW15892   6.173   8.655   7.782
 3974SOL     OW15893   1.412   7.084   6.305
 3974SOL    HW115894   1.392   7.023   6.377
 3974SOL    HW215895   1.372   7.044   6.228
 3974SOL     MW15896   1.404   7.071   6.305
 3975SOL     OW15897   3.956   4.530   7.502
 3975SOL    HW115898   4.009   4.451   7.513
 3975SOL    HW215899   3.947   4.566   7.591
 3975SOL     MW15900   3.962   4.525   7.515
 3976SOL     OW15901   3.173   3.242   1.741
 3976SOL    HW115902   3.138   3.176   1.801
 3976SOL    HW215903   3.259   3.263   1.776
 3976SOL     MW15904   3.179   3.236   1.753
 3977SOL     OW15905   9.358   9.686   7.620
 3977SOL    HW115906   9.338   9.669   7.528
 3977SOL    HW215907   9.330   9.776   7.635
 3977SOL     MW15908   9.352   9.695   7.611
 3978SOL     OW15909   7.259   5.855   6.200
 3978SOL    HW115910   7.169   5.824   6.191
 3978SOL    HW215911   7.282   5.888   6.113
 3978SOL     MW15912   7.251   5.855   6.188
 3979SOL     OW15913   1.709   1.446   3.449
 3979SOL    HW115914   1.770   1.460   3.376
 3979SOL    HW215915   1.701   1.351   3.456
 3979SOL     MW15916   1.716   1.436   3.440
 3980SOL     OW15917   3.732   5.297   2.758
 3980SOL    HW115918   3.740   5.227   2.694
 3980SOL    HW215919   3.697   5.255   2.836
 3980SOL     MW15920   3.729   5.283   2.760
 3981SOL     OW15921   2.097   8.379   3.537
 3981SOL    HW115922   2.069   8.290   3.554
 3981SOL    HW215923   2.160   8.398   3.607
 3981SOL     MW15924   2.102   8.370   3.548
 3982SOL     OW15925   8.282   3.571   2.706
 3982SOL    HW115926   8.377   3.568   2.703
 3982SOL    HW215927   8.261   3.655   2.747
 3982SOL     MW15928   8.291   3.581   2.711
 3983SOL     OW15929   6.378   5.372  10.032
 3983SOL    HW115930   6.464   5.355  10.071
 3983SOL    HW215931   6.378   5.320   9.951
 3983SOL     MW15932   6.389   5.363  10.027
 3984SOL     OW15933   4.922   1.183   3.993
 3984SOL    HW115934   4.918   1.120   3.921
 3984SOL    HW215935   4.883   1.263   3.958
 3984SOL     MW15936   4.916   1.185   3.980
 3985SOL     OW15937   7.637   2.197   7.897
 3985SOL    HW115938   7.666   2.260   7.963
 3985SOL    HW215939   7.553   2.165   7.930
 3985SOL     MW15940   7.630   2.201   7.910
 3986SOL     OW15941   2.070   0.399   2.417
 3986SOL    HW115942   2.068   0.405   2.513
 3986SOL    HW215943   2.010   0.468   2.388
 3986SOL     MW15944   2.062   0.409   2.426
 3987SOL     OW15945   5.769   0.060   9.395
 3987SOL    HW115946   5.813  -0.019   9.363
 3987SOL    HW215947   5.678   0.050   9.368
 3987SOL     MW15948   5.763   0.049   9.387
 3988SOL     OW15949   0.116   1.899   0.812
 3988SOL    HW115950   0.199   1.945   0.824
 3988SOL    HW215951   0.117   1.872   0.720
 3988SOL     MW15952   0.127   1.901   0.802
 3989SOL     OW15953   7.194   9.159   5.854
 3989SOL    HW115954   7.228   9.071   5.870
 3989SOL    HW215955   7.217   9.178   5.763
 3989SOL     MW15956   7.201   9.150   5.844
 3990SOL     OW15957   4.277   4.492   5.385
 3990SOL    HW115958   4.193   4.514   5.345
 3990SOL    HW215959   4.289   4.557   5.455
 3990SOL     MW15960   4.268   4.503   5.389
 3991SOL     OW15961   9.496   1.735   1.329
 3991SOL    HW115962   9.432   1.799   1.297
 3991SOL    HW215963   9.574   1.751   1.276
 3991SOL     MW15964   9.498   1.745   1.318
 3992SOL     OW15965   6.500   6.393   4.364
 3992SOL    HW115966   6.514   6.333   4.437
 3992SOL    HW215967   6.499   6.480   4.404
 3992SOL     MW15968   6.501   6.397   4.378
 3993SOL     OW15969   1.283   1.817   6.437
 3993SOL    HW115970   1.368   1.855   6.414
 3993SOL    HW215971   1.286   1.729   6.400
 3993SOL     MW15972   1.294   1.811   6.429
 3994SOL     OW15973   9.331   2.834   9.584
 3994SOL    HW115974   9.290   2.920   9.590
 3994SOL    HW215975   9.393   2.832   9.657
 3994SOL     MW15976   9.334   2.844   9.594
 3995SOL     OW15977   8.251   6.137   6.840
 3995SOL    HW115978   8.178   6.099   6.791
 3995SOL    HW215979   8.303   6.062   6.868
 3995SOL     MW15980   8.248   6.123   6.837
 3996SOL     OW15981   9.670   6.736   9.408
 3996SOL    HW115982   9.734   6.665   9.416
 3996SOL    HW215983   9.722   6.814   9.390
 3996SOL     MW15984   9.685   6.737   9.407
 3997SOL     OW15985   6.599   0.341   9.358
 3997SOL    HW115986   6.573   0.414   9.412
 3997SOL    HW215987   6.518   0.294   9.339
 3997SOL     MW15988   6.585   0.344   9.362
 3998SOL     OW15989   2.136   8.454   9.593
 3998SOL    HW115990   2.111   8.486   9.680
 3998SOL    HW215991   2.073   8.385   9.574
 3998SOL     MW15992   2.125   8.450   9.602
 3999SOL     OW15993   7.397   5.271   9.395
 3999SOL    HW115994   7.336   5.210   9.437
 3999SOL    HW215995   7.466   5.215   9.359
 3999SOL     MW15996   7.398   5.256   9.396
 4000SOL     OW15997   4.619   7.258   2.806
 4000SOL    HW115998   4.595   7.311   2.883
 4000SOL    HW215999   4.603   7.168   2.834
 4000SOL     MW16000   4.614   7.253   2.820
 4001SOL     OW16001   3.667   9.257   7.253
 4001SOL    HW116002   3.716   9.276   7.172
 4001SOL    HW216003   3.579   9.235   7.222
 4001SOL     MW16004   3.662   9.257   7.238
 4002SOL     OW16005   5.530   3.061   2.803
 4002SOL    HW116006   5.500   2.995   2.741
 4002SOL    HW216007   5.582   3.011   2.867
 4002SOL     MW16008   5.533   3.046   2.804
 4003SOL     OW16009   4.978   8.389   6.230
 4003SOL    HW116010   4.962   8.346   6.314
 4003SOL    HW216011   4.992   8.481   6.253
 4003SOL     MW16012   4.978   8.395   6.244
 4004SOL     OW16013   6.833   5.513   8.272
 4004SOL    HW116014   6.900   5.579   8.255
 4004SOL    HW216015   6.830   5.461   8.192
 4004SOL     MW16016   6.841   5.515   8.260
 4005SOL     OW16017   4.824   9.676   9.749
 4005SOL    HW116018   4.881   9.707   9.820
 4005SOL    HW216019   4.736   9.677   9.786
 4005SOL     MW16020   4.820   9.680   9.763
 4006SOL     OW16021   3.977   8.033   6.810
 4006SOL    HW116022   3.962   7.940   6.792
 4006SOL    HW216023   4.043   8.034   6.879
 4006SOL     MW16024   3.983   8.021   6.817
 4007SOL     OW16025   4.752  10.105   1.169
 4007SOL    HW116026   4.824  10.154   1.208
 4007SOL    HW216027   4.739  10.031   1.228
 4007SOL     MW16028   4.759  10.102   1.181
 4008SOL     OW16029   0.414   6.596   6.960
 4008SOL    HW116030   0.386   6.675   7.007
 4008SOL    HW216031   0.484   6.560   7.015
 4008SOL     MW16032   0.419   6.602   6.973
 4009SOL     OW16033   7.638   5.145   1.668
 4009SOL    HW116034   7.598   5.150   1.581
 4009SOL    HW216035   7.568   5.168   1.728
 4009SOL     MW16036   7.624   5.149   1.665
 4010SOL     OW16037   7.001   9.898   1.591
 4010SOL    HW116038   6.930   9.895   1.655
 4010SOL    HW216039   6.967   9.849   1.516
 4010SOL     MW16040   6.987   9.891   1.590
 4011SOL     OW16041   5.290   7.126   8.081
 4011SOL    HW116042   5.372   7.176   8.077
 4011SOL    HW216043   5.252   7.149   8.166
 4011SOL     MW16044   5.296   7.136   8.092
 4012SOL     OW16045   8.616   7.517   6.191
 4012SOL    HW116046   8.678   7.497   6.261
 4012SOL    HW216047   8.624   7.612   6.178
 4012SOL     MW16048   8.625   7.527   6.198
 4013SOL     OW16049   0.967   3.339   7.090
 4013SOL    HW116050   0.920   3.423   7.095
 4013SOL    HW216051   0.902   3.274   7.115
 4013SOL     MW16052   0.952   3.342   7.094
 4014SOL     OW16053   5.686   8.392   7.430
 4014SOL    HW116054   5.621   8.430   7.371
 4014SOL    HW216055   5.728   8.323   7.378
 4014SOL     MW16056   5.683   8.388   7.416
 4015SOL     OW16057   6.370   0.103   3.082
 4015SOL    HW116058   6.369   0.178   3.023
 4015SOL    HW216059   6.399   0.030   3.028
 4015SOL     MW16060   6.373   0.103   3.068
 4016SOL     OW16061   3.624   3.815   1.671
 4016SOL    HW116062   3.594   3.864   1.748
 4016SOL    HW216063   3.558   3.833   1.604
 4016SOL     MW16064   3.612   3.824   1.672
 4017SOL     OW16065   8.994   5.529   9.200
 4017SOL    HW116066   9.085   5.516   9.171
 4017SOL    HW216067   8.942   5.475   9.141
 4017SOL     MW16068   8.999   5.520   9.189
 4018SOL     OW16069   8.409   8.527   7.604
 4018SOL    HW116070   8.486   8.581   7.624
 4018SOL    HW216071   8.340   8.590   7.582
 4018SOL     MW16072   8.410   8.542   7.604
 4019SOL     OW16073   4.891   4.891   3.905
 4019SOL    HW116074   4.800   4.896   3.934
 4019SOL    HW216075   4.933   4.831   3.966
 4019SOL     MW16076   4.885   4.884   3.916
 4020SOL     OW16077   8.373   6.386   1.074
 4020SOL    HW116078   8.319   6.307   1.071
 4020SOL    HW216079   8.348   6.428   1.156
 4020SOL     MW16080   8.363   6.381   1.084
 4021SOL     OW16081   0.601   6.481   7.121
 4021SOL    HW116082   0.568   6.391   7.122
 4021SOL    HW216083   0.696   6.472   7.119
 4021SOL     MW16084   0.609   6.468   7.121
 4022SOL     OW16085   9.014   9.163   0.719
 4022SOL    HW116086   8.974   9.243   0.753
 4022SOL    HW216087   8.950   9.129   0.656
 4022SOL     MW16088   9.001   9.169   0.715
 4023SOL     OW16089   9.362   3.660   4.062
 4023SOL    HW116090   9.408   3.607   4.128
 4023SOL    HW216091   9.376   3.612   3.980
 4023SOL     MW16092   9.370   3.647   4.059
 4024SOL     OW16093   9.156   7.093   5.431
 4024SOL    HW116094   9.144   7.075   5.338
 4024SOL    HW216095   9.241   7.055   5.452
 4024SOL     MW16096   9.165   7.086   5.422
 4025SOL     OW16097   9.361   6.402   7.886
 4025SOL    HW116098   9.431   6.352   7.927
 4025SOL    HW216099   9.391   6.493   7.887
 4025SOL     MW16100   9.373   6.407   7.891
 4026SOL     OW16101   9.460   9.204   6.420
 4026SOL    HW116102   9.437   9.222   6.512
 4026SOL    HW216103   9.484   9.111   6.420
 4026SOL     MW16104   9.460   9.194   6.432
 4027SOL     OW16105   9.281   1.815   0.462
 4027SOL    HW116106   9.270   1.816   0.557
 4027SOL    HW216107   9.307   1.904   0.440
 4027SOL     MW16108   9.283   1.827   0.471
 4028SOL     OW16109   9.230   5.693   3.888
 4028SOL    HW116110   9.258   5.781   3.863
 4028SOL    HW216111   9.155   5.676   3.831
 4028SOL     MW16112   9.224   5.702   3.877
 4029SOL     OW16113   4.706   8.850   4.552
 4029SOL    HW116114   4.792   8.891   4.548
 4029SOL    HW216115   4.724   8.757   4.564
 4029SOL     MW16116   4.719   8.844   4.553
 4030SOL     OW16117   3.470   3.244   3.405
 4030SOL    HW116118   3.454   3.152   3.424
 4030SOL    HW216119   3.390   3.289   3.435
 4030SOL     MW16120   3.458   3.238   3.411
 4031SOL     OW16121   1.876   1.109   2.378
 4031SOL    HW116122   1.788   1.091   2.410
 4031SOL    HW216123   1.905   1.025   2.341
 4031SOL     MW16124   1.869   1.096   2.377
 4032SOL     OW16125   6.812   2.722   8.010
 4032SOL    HW116126   6.837   2.632   8.033
 4032SOL    HW216127   6.896   2.769   8.005
 4032SOL     MW16128   6.826   2.716   8.013
 4033SOL     OW16129   3.400   1.969   8.819
 4033SOL    HW116130   3.480   2.005   8.858
 4033SOL    HW216131   3.412   1.980   8.725
 4033SOL     MW16132   3.412   1.975   8.812
 4034SOL     OW16133   5.394   1.605   0.141
 4034SOL    HW116134   5.417   1.614   0.049
 4034SOL    HW216135   5.479   1.601   0.186
 4034SOL     MW16136   5.408   1.606   0.135
 4035SOL     OW16137   4.408   8.843   4.172
 4035SOL    HW116138   4.425   8.773   4.109
 4035SOL    HW216139   4.419   8.923   4.122
 4035SOL     MW16140   4.412   8.844   4.158
 4036SOL     OW16141   4.380   7.714   2.863
 4036SOL    HW116142   4.403   7.773   2.934
 4036SOL    HW216143   4.452   7.722   2.800
 4036SOL     MW16144   4.392   7.722   2.864
 4037SOL     OW16145   2.050   0.110   8.247
 4037SOL    HW116146   2.045   0.128   8.153
 4037SOL    HW216147   1.979   0.162   8.285
 4037SOL     MW16148   2.040   0.119   8.240
 4038SOL     OW16149   8.614   4.164   1.927
 4038SOL    HW116150   8.697   4.206   1.904
 4038SOL    HW216151   8.634   4.070   1.926
 4038SOL     MW16152   8.627   4.157   1.924
 4039SOL     OW16153   6.627   0.380   2.542
 4039SOL    HW116154   6.710   0.359   2.585
 4039SOL    HW216155   6.652   0.409   2.454
 4039SOL     MW16156   6.640   0.381   2.536
 4040SOL     OW16157   3.877   8.228   8.825
 4040SOL    HW116158   3.886   8.148   8.877
 4040SOL    HW216159   3.808   8.208   8.763
 4040SOL     MW16160   3.869   8.215   8.824
 4041SOL     OW16161   4.014   5.012  10.049
 4041SOL    HW116162   4.021   4.995  10.143
 4041SOL    HW216163   4.058   4.937  10.008
 4041SOL     MW16164   4.021   5.000  10.056
 4042SOL     OW16165   6.969   2.223   7.980
 4042SOL    HW116166   7.033   2.234   7.909
 4042SOL    HW216167   6.958   2.311   8.016
 4042SOL     MW16168   6.976   2.236   7.975
 4043SOL     OW16169   3.253   3.161   5.426
 4043SOL    HW116170   3.186   3.094   5.416
 4043SOL    HW216171   3.224   3.233   5.369
 4043SOL     MW16172   3.241   3.162   5.417
 4044SOL     OW16173   2.192   0.776   8.847
 4044SOL    HW116174   2.207   0.692   8.889
 4044SOL    HW216175   2.277   0.821   8.852
 4044SOL     MW16176   2.205   0.771   8.853
 4045SOL     OW16177   0.315   7.850   0.113
 4045SOL    HW116178   0.284   7.873   0.201
 4045SOL    HW216179   0.250   7.787   0.080
 4045SOL     MW16180   0.303   7.845   0.120
 4046SOL     OW16181   6.560   6.118   5.828
 4046SOL    HW116182   6.501   6.119   5.753
 4046SOL    HW216183   6.544   6.202   5.872
 4046SOL     MW16184   6.550   6.129   5.824
 4047SOL     OW16185   8.375   4.685   0.016
 4047SOL    HW116186   8.440   4.657   0.082
 4047SOL    HW216187   8.307   4.617   0.019
 4047SOL     MW16188   8.375   4.673   0.025
 4048SOL     OW16189   9.395   7.925   1.750
 4048SOL    HW116190   9.368   7.833   1.747
 4048SOL    HW216191   9.478   7.924   1.797
 4048SOL     MW16192   9.402   7.913   1.756
 4049SOL     OW16193   9.511   4.932   7.081
 4049SOL    HW116194   9.440   4.996   7.080
 4049SOL    HW216195   9.561   4.949   7.002
 4049SOL     MW16196   9.508   4.942   7.071
 4050SOL     OW16197   1.899   4.847   8.749
 4050SOL    HW116198   1.926   4.780   8.686
 4050SOL    HW216199   1.980   4.869   8.796
 4050SOL     MW16200   1.913   4.841   8.747
 4051SOL     OW16201   2.019   1.677   0.862
 4051SOL    HW116202   1.981   1.714   0.941
 4051SOL    HW216203   2.082   1.743   0.832
 4051SOL     MW16204   2.022   1.690   0.868
 4052SOL     OW16205   1.050   6.992   9.788
 4052SOL    HW116206   1.067   6.988   9.882
 4052SOL    HW216207   0.988   7.064   9.778
 4052SOL     MW16208   1.045   7.000   9.799
 4053SOL     OW16209   9.438   6.911   4.098
 4053SOL    HW116210   9.387   6.923   4.178
 4053SOL    HW216211   9.529   6.910   4.127
 4053SOL     MW16212   9.443   6.912   4.112
 4054SOL     OW16213   2.246   9.693   1.029
 4054SOL    HW116214   2.323   9.736   1.068
 4054SOL    HW216215   2.225   9.622   1.090
 4054SOL     MW16216   2.253   9.689   1.042
 4055SOL     OW16217   7.756   7.551   5.721
 4055SOL    HW116218   7.834   7.556   5.666
 4055SOL    HW216219   7.789   7.525   5.807
 4055SOL     MW16220   7.770   7.548   5.725
 4056SOL     OW16221   9.675   1.521   2.000
 4056SOL    HW116222   9.715   1.607   1.990
 4056SOL    HW216223   9.676   1.504   2.094
 4056SOL     MW16224   9.680   1.530   2.011
 4057SOL     OW16225   1.628   4.168   3.361
 4057SOL    HW116226   1.683   4.242   3.383
 4057SOL    HW216227   1.627   4.166   3.265
 4057SOL     MW16228   1.635   4.177   3.351
 4058SOL     OW16229   8.386  10.000   2.908
 4058SOL    HW116230   8.394  10.092   2.932
 4058SOL    HW216231   8.333   9.962   2.978
 4058SOL     MW16232   8.380  10.007   2.920
 4059SOL     OW16233   7.385   3.724   6.697
 4059SOL    HW116234   7.420   3.684   6.777
 4059SOL    HW216235   7.294   3.696   6.694
 4059SOL     MW16236   7.378   3.715   6.707
 4060SOL     OW16237   0.270   2.508  10.073
 4060SOL    HW116238   0.235   2.588  10.113
 4060SOL    HW216239   0.272   2.445  10.145
 4060SOL     MW16240   0.265   2.510  10.087
 4061SOL     OW16241   7.766   2.196   7.113
 4061SOL    HW116242   7.779   2.288   7.091
 4061SOL    HW216243   7.709   2.198   7.190
 4061SOL     MW16244   7.761   2.208   7.120
 4062SOL     OW16245   4.753   4.360   5.270
 4062SOL    HW116246   4.801   4.435   5.234
 4062SOL    HW216247   4.661   4.386   5.266
 4062SOL     MW16248   4.748   4.373   5.265
 4063SOL     OW16249   1.070   6.457   4.746
 4063SOL    HW116250   1.140   6.447   4.810
 4063SOL    HW216251   1.009   6.386   4.766
 4063SOL     MW16252   1.071   6.447   4.757
 4064SOL     OW16253   3.519   7.376   3.250
 4064SOL    HW116254   3.426   7.376   3.273
 4064SOL    HW216255   3.560   7.321   3.317
 4064SOL     MW16256   3.513   7.369   3.261
 4065SOL     OW16257   1.026   6.472   9.280
 4065SOL    HW116258   1.024   6.505   9.370
 4065SOL    HW216259   1.099   6.410   9.279
 4065SOL     MW16260   1.035   6.468   9.292
 4066SOL     OW16261   6.979   3.735   2.008
 4066SOL    HW116262   6.916   3.745   2.080
 4066SOL    HW216263   6.969   3.814   1.956
 4066SOL     MW16264   6.970   3.746   2.011
 4067SOL     OW16265   2.453   8.586   8.782
 4067SOL    HW116266   2.388   8.516   8.787
 4067SOL    HW216267   2.439   8.625   8.695
 4067SOL     MW16268   2.443   8.582   8.771
 4068SOL     OW16269   8.757   6.959   9.491
 4068SOL    HW116270   8.742   7.037   9.438
 4068SOL    HW216271   8.714   6.889   9.442
 4068SOL     MW16272   8.749   6.960   9.478
 4069SOL     OW16273   7.371   9.219   6.903
 4069SOL    HW116274   7.282   9.225   6.870
 4069SOL    HW216275   7.423   9.275   6.845
 4069SOL     MW16276   7.367   9.227   6.892
 4070SOL     OW16277   3.811   2.126   8.276
 4070SOL    HW116278   3.751   2.143   8.204
 4070SOL    HW216279   3.898   2.127   8.236
 4070SOL     MW16280   3.815   2.128   8.262
 4071SOL     OW16281   8.892   5.659   4.523
 4071SOL    HW116282   8.825   5.597   4.494
 4071SOL    HW216283   8.928   5.694   4.442
 4071SOL     MW16284   8.888   5.655   4.509
 4072SOL     OW16285   6.114   6.891   0.986
 4072SOL    HW116286   6.065   6.842   1.053
 4072SOL    HW216287   6.206   6.874   1.007
 4072SOL     MW16288   6.119   6.883   0.998
 4073SOL     OW16289   3.111   9.861   2.498
 4073SOL    HW116290   3.114   9.805   2.421
 4073SOL    HW216291   3.134   9.802   2.571
 4073SOL     MW16292   3.114   9.846   2.498
 4074SOL     OW16293   2.677   3.837   3.955
 4074SOL    HW116294   2.766   3.825   3.920
 4074SOL    HW216295   2.619   3.804   3.887
 4074SOL     MW16296   2.681   3.831   3.942
 4075SOL     OW16297   9.708   0.947   8.827
 4075SOL    HW116298   9.613   0.938   8.833
 4075SOL    HW216299   9.721   1.013   8.758
 4075SOL     MW16300   9.698   0.955   8.819
 4076SOL     OW16301   0.364   5.133   8.985
 4076SOL    HW116302   0.344   5.197   9.053
 4076SOL    HW216303   0.283   5.084   8.972
 4076SOL     MW16304   0.351   5.135   8.992
 4077SOL     OW16305   0.876   1.035   5.143
 4077SOL    HW116306   0.947   0.980   5.175
 4077SOL    HW216307   0.918   1.096   5.082
 4077SOL     MW16308   0.890   1.036   5.139
 4078SOL     OW16309   3.937   6.074   5.597
 4078SOL    HW116310   3.880   5.997   5.591
 4078SOL    HW216311   3.987   6.061   5.678
 4078SOL     MW16312   3.936   6.062   5.606
 4079SOL     OW16313   6.368   8.849   7.854
 4079SOL    HW116314   6.419   8.801   7.919
 4079SOL    HW216315   6.304   8.785   7.822
 4079SOL     MW16316   6.367   8.835   7.858
 4080SOL     OW16317   4.613   3.229   9.189
 4080SOL    HW116318   4.543   3.257   9.247
 4080SOL    HW216319   4.606   3.287   9.113
 4080SOL     MW16320   4.603   3.240   9.186
 4081SOL     OW16321   0.761   3.335   5.014
 4081SOL    HW116322   0.700   3.401   5.046
 4081SOL    HW216323   0.813   3.312   5.090
 4081SOL     MW16324   0.760   3.341   5.028
 4082SOL     OW16325   0.072   9.410   2.599
 4082SOL    HW116326   0.084   9.501   2.623
 4082SOL    HW216327  -0.002   9.410   2.538
 4082SOL     MW16328   0.064   9.421   2.594
 4083SOL     OW16329   3.067   8.486   2.096
 4083SOL    HW116330   3.123   8.486   2.173
 4083SOL    HW216331   3.002   8.418   2.113
 4083SOL     MW16332   3.066   8.477   2.108
 4084SOL     OW16333   3.448   2.480   6.938
 4084SOL    HW116334   3.527   2.472   6.992
 4084SOL    HW216335   3.445   2.572   6.913
 4084SOL     MW16336   3.458   2.491   6.942
 4085SOL     OW16337   7.825   5.625   9.219
 4085SOL    HW116338   7.736   5.652   9.241
 4085SOL    HW216339   7.869   5.706   9.191
 4085SOL     MW16340   7.820   5.639   9.219
 4086SOL     OW16341   7.071   1.318   0.626
 4086SOL    HW116342   7.162   1.346   0.623
 4086SOL    HW216343   7.032   1.354   0.547
 4086SOL     MW16344   7.077   1.326   0.616
 4087SOL     OW16345   4.332   9.093   8.377
 4087SOL    HW116346   4.312   9.093   8.470
 4087SOL    HW216347   4.254   9.055   8.336
 4087SOL     MW16348   4.319   9.088   8.384
 4088SOL     OW16349   7.648   7.610   6.581
 4088SOL    HW116350   7.693   7.579   6.502
 4088SOL    HW216351   7.565   7.562   6.583
 4088SOL     MW16352   7.644   7.600   6.571
 4089SOL     OW16353   1.943   0.596   2.264
 4089SOL    HW116354   1.870   0.567   2.209
 4089SOL    HW216355   2.021   0.567   2.216
 4089SOL     MW16356   1.944   0.589   2.251
 4090SOL     OW16357   1.938   4.113   4.679
 4090SOL    HW116358   1.979   4.141   4.761
 4090SOL    HW216359   1.988   4.035   4.653
 4090SOL     MW16360   1.950   4.106   4.686
 4091SOL     OW16361   6.377   0.438   2.635
 4091SOL    HW116362   6.465   0.417   2.602
 4091SOL    HW216363   6.327   0.462   2.557
 4091SOL     MW16364   6.382   0.439   2.621
 4092SOL     OW16365   0.002   6.409   7.886
 4092SOL    HW116366   0.070   6.452   7.938
 4092SOL    HW216367  -0.070   6.471   7.884
 4092SOL     MW16368   0.002   6.423   7.892
 4093SOL     OW16369   9.154   9.803   5.451
 4093SOL    HW116370   9.144   9.768   5.362
 4093SOL    HW216371   9.244   9.836   5.452
 4093SOL     MW16372   9.164   9.803   5.440
 4094SOL     OW16373   0.548   9.150   0.803
 4094SOL    HW116374   0.500   9.229   0.780
 4094SOL    HW216375   0.627   9.153   0.749
 4094SOL     MW16376   0.552   9.160   0.793
 4095SOL     OW16377   7.889   6.471   8.016
 4095SOL    HW116378   7.827   6.543   8.008
 4095SOL    HW216379   7.857   6.405   7.954
 4095SOL     MW16380   7.877   6.472   8.007
 4096SOL     OW16381   9.145   5.314   3.013
 4096SOL    HW116382   9.152   5.238   3.071
 4096SOL    HW216383   9.097   5.281   2.937
 4096SOL     MW16384   9.140   5.300   3.011
 4097SOL     OW16385   8.664   1.446   2.893
 4097SOL    HW116386   8.664   1.403   2.978
 4097SOL    HW216387   8.580   1.493   2.890
 4097SOL     MW16388   8.653   1.446   2.903
 4098SOL     OW16389   9.723   0.039   6.350
 4098SOL    HW116390   9.631   0.040   6.377
 4098SOL    HW216391   9.772   0.047   6.432
 4098SOL     MW16392   9.717   0.040   6.364
 4099SOL     OW16393   1.852   5.020   5.964
 4099SOL    HW116394   1.825   5.079   5.893
 4099SOL    HW216395   1.829   5.068   6.044
 4099SOL     MW16396   1.846   5.034   5.965
 4100SOL     OW16397  10.143   9.905   3.722
 4100SOL    HW116398  10.147   9.861   3.637
 4100SOL    HW216399  10.211   9.862   3.774
 4100SOL     MW16400  10.152   9.893   3.717
 4101SOL     OW16401   3.039   0.471   1.620
 4101SOL    HW116402   3.100   0.398   1.613
 4101SOL    HW216403   3.095   0.548   1.629
 4101SOL     MW16404   3.054   0.472   1.621
 4102SOL     OW16405   5.151   2.010   1.755
 4102SOL    HW116406   5.185   1.999   1.844
 4102SOL    HW216407   5.063   2.045   1.767
 4102SOL     MW16408   5.144   2.013   1.768
 4103SOL     OW16409   4.350   0.943   7.368
 4103SOL    HW116410   4.307   1.025   7.345
 4103SOL    HW216411   4.331   0.930   7.461
 4103SOL     MW16412   4.342   0.952   7.377
 4104SOL     OW16413   7.067   2.015   8.659
 4104SOL    HW116414   7.103   2.103   8.675
 4104SOL    HW216415   7.072   2.005   8.564
 4104SOL     MW16416   7.072   2.025   8.649
 4105SOL     OW16417   0.440   0.956   5.975
 4105SOL    HW116418   0.366   0.968   6.035
 4105SOL    HW216419   0.400   0.951   5.888
 4105SOL     MW16420   0.425   0.957   5.972
 4106SOL     OW16421   8.347   5.025   5.621
 4106SOL    HW116422   8.254   5.003   5.633
 4106SOL    HW216423   8.356   5.112   5.660
 4106SOL     MW16424   8.336   5.033   5.628
 4107SOL     OW16425   8.178   9.537   4.686
 4107SOL    HW116426   8.122   9.487   4.627
 4107SOL    HW216427   8.118   9.584   4.743
 4107SOL     MW16428   8.163   9.536   4.686
 4108SOL     OW16429   1.983   4.699   5.190
 4108SOL    HW116430   2.052   4.734   5.246
 4108SOL    HW216431   1.937   4.777   5.158
 4108SOL     MW16432   1.986   4.714   5.193
 4109SOL     OW16433   5.880   3.265   2.927
 4109SOL    HW116434   5.929   3.341   2.898
 4109SOL    HW216435   5.790   3.282   2.899
 4109SOL     MW16436   5.875   3.277   2.920
 4110SOL     OW16437   3.530   2.328   6.079
 4110SOL    HW116438   3.510   2.329   5.986
 4110SOL    HW216439   3.625   2.322   6.083
 4110SOL     MW16440   3.539   2.327   6.068
 4111SOL     OW16441   2.720   9.325   1.624
 4111SOL    HW116442   2.720   9.231   1.603
 4111SOL    HW216443   2.648   9.361   1.573
 4111SOL     MW16444   2.711   9.317   1.615
 4112SOL     OW16445   0.064   8.170   8.499
 4112SOL    HW116446   0.150   8.207   8.519
 4112SOL    HW216447   0.003   8.225   8.548
 4112SOL     MW16448   0.067   8.182   8.508
 4113SOL     OW16449   0.566   6.379   0.389
 4113SOL    HW116450   0.558   6.413   0.300
 4113SOL    HW216451   0.628   6.306   0.381
 4113SOL     MW16452   0.573   6.374   0.376
 4114SOL     OW16453   3.264   5.862   4.569
 4114SOL    HW116454   3.341   5.882   4.622
 4114SOL    HW216455   3.299   5.832   4.485
 4114SOL     MW16456   3.278   5.860   4.565
 4115SOL     OW16457   6.673   0.165   6.459
 4115SOL    HW116458   6.609   0.201   6.398
 4115SOL    HW216459   6.721   0.241   6.492
 4115SOL     MW16460   6.671   0.179   6.456
 4116SOL     OW16461   0.028   2.331   8.458
 4116SOL    HW116462   0.096   2.355   8.521
 4116SOL    HW216463   0.074   2.324   8.375
 4116SOL     MW16464   0.042   2.333   8.456
 4117SOL     OW16465   5.089   0.340   8.802
 4117SOL    HW116466   5.142   0.313   8.728
 4117SOL    HW216467   5.000   0.349   8.767
 4117SOL     MW16468   5.084   0.338   8.788
 4118SOL     OW16469   9.473   3.530   0.031
 4118SOL    HW116470   9.436   3.612   0.061
 4118SOL    HW216471   9.538   3.556  -0.035
 4118SOL     MW16472   9.477   3.544   0.026
 4119SOL     OW16473   9.131   2.963   1.245
 4119SOL    HW116474   9.055   3.015   1.273
 4119SOL    HW216475   9.094   2.893   1.191
 4119SOL     MW16476   9.117   2.961   1.242
 4120SOL     OW16477   8.860   3.399   7.495
 4120SOL    HW116478   8.919   3.463   7.456
 4120SOL    HW216479   8.824   3.351   7.421
 4120SOL     MW16480   8.863   3.401   7.481
 4121SOL     OW16481   3.754   8.172  10.064
 4121SOL    HW116482   3.789   8.091  10.101
 4121SOL    HW216483   3.659   8.167  10.079
 4121SOL     MW16484   3.746   8.161  10.071
 4122SOL     OW16485   1.669   4.677   2.439
 4122SOL    HW116486   1.714   4.760   2.455
 4122SOL    HW216487   1.600   4.673   2.505
 4122SOL     MW16488   1.666   4.687   2.450
 4123SOL     OW16489   2.710   7.031   1.245
 4123SOL    HW116490   2.690   7.094   1.314
 4123SOL    HW216491   2.777   6.974   1.283
 4123SOL     MW16492   2.716   7.032   1.259
 4124SOL     OW16493   2.639   5.758   0.809
 4124SOL    HW116494   2.663   5.704   0.734
 4124SOL    HW216495   2.715   5.756   0.866
 4124SOL     MW16496   2.652   5.751   0.807
 4125SOL     OW16497   3.035   7.503   2.961
 4125SOL    HW116498   3.120   7.545   2.948
 4125SOL    HW216499   3.055   7.410   2.966
 4125SOL     MW16500   3.048   7.497   2.960
 4126SOL     OW16501   1.840   1.540   0.699
 4126SOL    HW116502   1.899   1.594   0.753
 4126SOL    HW216503   1.873   1.451   0.710
 4126SOL     MW16504   1.852   1.535   0.707
 4127SOL     OW16505   1.772   4.359   9.409
 4127SOL    HW116506   1.701   4.387   9.352
 4127SOL    HW216507   1.730   4.305   9.475
 4127SOL     MW16508   1.758   4.356   9.410
 4128SOL     OW16509   7.400   2.464   9.026
 4128SOL    HW116510   7.478   2.432   9.070
 4128SOL    HW216511   7.339   2.485   9.097
 4128SOL     MW16512   7.402   2.463   9.041
 4129SOL     OW16513   0.571   3.233   1.312
 4129SOL    HW116514   0.511   3.204   1.381
 4129SOL    HW216515   0.544   3.323   1.293
 4129SOL     MW16516   0.560   3.240   1.319
 4130SOL     OW16517   5.576   9.432   7.045
 4130SOL    HW116518   5.502   9.376   7.066
 4130SOL    HW216519   5.607   9.400   6.960
 4130SOL     MW16520   5.570   9.421   7.037
 4131SOL     OW16521   5.171   2.780   8.965
 4131SOL    HW116522   5.265   2.779   8.986
 4131SOL    HW216523   5.156   2.867   8.927
 4131SOL     MW16524   5.181   2.791   8.963
 4132SOL     OW16525   2.110   4.377   8.385
 4132SOL    HW116526   2.186   4.379   8.327
 4132SOL    HW216527   2.142   4.412   8.468
 4132SOL     MW16528   2.124   4.382   8.388
 4133SOL     OW16529   3.529   0.441   4.951
 4133SOL    HW116530   3.526   0.428   4.856
 4133SOL    HW216531   3.472   0.373   4.986
 4133SOL     MW16532   3.521   0.431   4.943
 4134SOL     OW16533   0.958   0.945   0.730
 4134SOL    HW116534   0.961   0.884   0.803
 4134SOL    HW216535   0.920   0.895   0.657
 4134SOL     MW16536   0.954   0.931   0.730
 4135SOL     OW16537   8.627   1.003   6.270
 4135SOL    HW116538   8.568   0.992   6.345
 4135SOL    HW216539   8.656   1.094   6.275
 4135SOL     MW16540   8.623   1.013   6.280
 4136SOL     OW16541   3.251   8.255   6.986
 4136SOL    HW116542   3.288   8.177   6.945
 4136SOL    HW216543   3.300   8.265   7.067
 4136SOL     MW16544   3.262   8.247   6.991
 4137SOL     OW16545   6.290   6.756   6.997
 4137SOL    HW116546   6.372   6.720   7.032
 4137SOL    HW216547   6.306   6.764   6.902
 4137SOL     MW16548   6.303   6.753   6.989
 4138SOL     OW16549   3.482   3.215   5.280
 4138SOL    HW116550   3.422   3.179   5.345
 4138SOL    HW216551   3.504   3.141   5.223
 4138SOL     MW16552   3.477   3.201   5.281
 4139SOL     OW16553   2.925   5.380   1.412
 4139SOL    HW116554   2.999   5.333   1.373
 4139SOL    HW216555   2.944   5.380   1.506
 4139SOL     MW16556   2.937   5.374   1.419
 4140SOL     OW16557   8.138   9.999   7.398
 4140SOL    HW116558   8.060  10.025   7.349
 4140SOL    HW216559   8.136  10.053   7.477
 4140SOL     MW16560   8.128  10.009   7.402
 4141SOL     OW16561   6.644   6.496   7.910
 4141SOL    HW116562   6.727   6.543   7.901
 4141SOL    HW216563   6.634   6.450   7.827
 4141SOL     MW16564   6.654   6.496   7.898
 4142SOL     OW16565   6.677   6.242   5.217
 4142SOL    HW116566   6.732   6.218   5.143
 4142SOL    HW216567   6.733   6.230   5.294
 4142SOL     MW16568   6.691   6.238   5.217
 4143SOL     OW16569   2.196   3.909   9.233
 4143SOL    HW116570   2.198   3.831   9.289
 4143SOL    HW216571   2.207   3.983   9.293
 4143SOL     MW16572   2.197   3.909   9.248
 4144SOL     OW16573   1.606   9.233   4.471
 4144SOL    HW116574   1.536   9.168   4.462
 4144SOL    HW216575   1.640   9.244   4.382
 4144SOL     MW16576   1.601   9.226   4.458
 4145SOL     OW16577   7.142   4.067   7.623
 4145SOL    HW116578   7.224   4.030   7.656
 4145SOL    HW216579   7.096   4.097   7.701
 4145SOL     MW16580   7.147   4.066   7.637
 4146SOL     OW16581   2.660   2.429   5.038
 4146SOL    HW116582   2.565   2.438   5.035
 4146SOL    HW216583   2.678   2.347   4.991
 4146SOL     MW16584   2.650   2.420   5.031
 4147SOL     OW16585   2.602   8.041   2.161
 4147SOL    HW116586   2.611   8.112   2.098
 4147SOL    HW216587   2.507   8.031   2.174
 4147SOL     MW16588   2.591   8.049   2.154
 4148SOL     OW16589   4.067   3.926   1.769
 4148SOL    HW116590   4.024   3.931   1.854
 4148SOL    HW216591   3.995   3.922   1.706
 4148SOL     MW16592   4.052   3.926   1.772
 4149SOL     OW16593   7.023   8.431   0.035
 4149SOL    HW116594   6.992   8.341   0.035
 4149SOL    HW216595   6.975   8.474   0.105
 4149SOL     MW16596   7.013   8.425   0.044
 4150SOL     OW16597   4.227   7.615   4.581
 4150SOL    HW116598   4.304   7.609   4.523
 4150SOL    HW216599   4.247   7.689   4.638
 4150SOL     MW16600   4.240   7.624   4.581
 4151SOL     OW16601   2.924   0.216   4.750
 4151SOL    HW116602   2.841   0.232   4.704
 4151SOL    HW216603   2.984   0.185   4.683
 4151SOL     MW16604   2.921   0.214   4.736
 4152SOL     OW16605   4.001   1.975   4.702
 4152SOL    HW116606   3.982   1.913   4.632
 4152SOL    HW216607   4.036   1.921   4.773
 4152SOL     MW16608   4.003   1.960   4.702
 4153SOL     OW16609   2.166   9.446   1.133
 4153SOL    HW116610   2.073   9.443   1.153
 4153SOL    HW216611   2.172   9.434   1.039
 4153SOL     MW16612   2.155   9.444   1.124
 4154SOL     OW16613   1.546   4.957   9.076
 4154SOL    HW116614   1.477   4.908   9.032
 4154SOL    HW216615   1.611   4.973   9.007
 4154SOL     MW16616   1.546   4.953   9.061
 4155SOL     OW16617   7.074   4.603   2.031
 4155SOL    HW116618   7.054   4.670   1.966
 4155SOL    HW216619   6.998   4.602   2.089
 4155SOL     MW16620   7.061   4.611   2.030
 4156SOL     OW16621   7.308   3.282   3.243
 4156SOL    HW116622   7.291   3.289   3.149
 4156SOL    HW216623   7.293   3.371   3.276
 4156SOL     MW16624   7.304   3.294   3.235
 4157SOL     OW16625   8.932   5.529   9.473
 4157SOL    HW116626   9.009   5.506   9.525
 4157SOL    HW216627   8.959   5.515   9.383
 4157SOL     MW16628   8.945   5.524   9.468
 4158SOL     OW16629   4.895   0.308   8.591
 4158SOL    HW116630   4.986   0.286   8.567
 4158SOL    HW216631   4.851   0.223   8.596
 4158SOL     MW16632   4.901   0.294   8.588
 4159SOL     OW16633   5.462   2.158   8.086
 4159SOL    HW116634   5.539   2.133   8.034
 4159SOL    HW216635   5.396   2.093   8.064
 4159SOL     MW16636   5.464   2.147   8.077
 4160SOL     OW16637   0.324   8.406   2.203
 4160SOL    HW116638   0.274   8.359   2.136
 4160SOL    HW216639   0.368   8.477   2.155
 4160SOL     MW16640   0.323   8.409   2.188
 4161SOL     OW16641   7.104   1.973   8.391
 4161SOL    HW116642   7.067   1.986   8.303
 4161SOL    HW216643   7.186   1.927   8.375
 4161SOL     MW16644   7.110   1.969   8.378
 4162SOL     OW16645   7.783   7.516   6.360
 4162SOL    HW116646   7.783   7.581   6.289
 4162SOL    HW216647   7.874   7.515   6.390
 4162SOL     MW16648   7.795   7.525   6.355
 4163SOL     OW16649   7.940   7.893   2.174
 4163SOL    HW116650   7.851   7.856   2.169
 4163SOL    HW216651   7.963   7.890   2.267
 4163SOL     MW16652   7.931   7.888   2.185
 4164SOL     OW16653   3.025   8.057   6.486
 4164SOL    HW116654   2.993   8.122   6.549
 4164SOL    HW216655   3.004   8.094   6.400
 4164SOL     MW16656   3.018   8.070   6.483
 4165SOL     OW16657   6.511   8.990   0.897
 4165SOL    HW116658   6.451   8.921   0.871
 4165SOL    HW216659   6.596   8.964   0.860
 4165SOL     MW16660   6.514   8.978   0.889
 4166SOL     OW16661   5.376   6.959   6.794
 4166SOL    HW116662   5.401   6.976   6.885
 4166SOL    HW216663   5.281   6.976   6.792
 4166SOL     MW16664   5.367   6.964   6.805
 4167SOL     OW16665   0.794   7.181   2.676
 4167SOL    HW116666   0.887   7.198   2.662
 4167SOL    HW216667   0.780   7.092   2.643
 4167SOL     MW16668   0.804   7.172   2.670
 4168SOL     OW16669   4.348   6.409   7.089
 4168SOL    HW116670   4.357   6.354   7.010
 4168SOL    HW216671   4.420   6.471   7.082
 4168SOL     MW16672   4.359   6.410   7.078
 4169SOL     OW16673   5.252   9.973   7.201
 4169SOL    HW116674   5.331   9.922   7.219
 4169SOL    HW216675   5.281  10.040   7.138
 4169SOL     MW16676   5.266   9.975   7.195
 4170SOL     OW16677   9.130   6.766   0.201
 4170SOL    HW116678   9.126   6.671   0.209
 4170SOL    HW216679   9.078   6.786   0.123
 4170SOL     MW16680   9.123   6.757   0.192
 4171SOL     OW16681   4.054   5.015   3.546
 4171SOL    HW116682   3.991   5.068   3.596
 4171SOL    HW216683   4.014   5.006   3.460
 4171SOL     MW16684   4.041   5.021   3.542
 4172SOL     OW16685   3.074   1.701   2.465
 4172SOL    HW116686   3.126   1.742   2.396
 4172SOL    HW216687   3.022   1.635   2.420
 4172SOL     MW16688   3.074   1.698   2.451
 4173SOL     OW16689   6.575   9.778   2.944
 4173SOL    HW116690   6.500   9.731   2.978
 4173SOL    HW216691   6.571   9.766   2.849
 4173SOL     MW16692   6.565   9.771   2.936
 4174SOL     OW16693   4.965   0.999   3.056
 4174SOL    HW116694   4.921   1.005   2.971
 4174SOL    HW216695   5.057   1.015   3.037
 4174SOL     MW16696   4.971   1.002   3.043
 4175SOL     OW16697   0.836   0.915   7.852
 4175SOL    HW116698   0.812   0.992   7.903
 4175SOL    HW216699   0.786   0.923   7.771
 4175SOL     MW16700   0.827   0.926   7.848
 4176SOL     OW16701   2.039   8.838   4.216
 4176SOL    HW116702   1.944   8.837   4.232
 4176SOL    HW216703   2.063   8.745   4.208
 4176SOL     MW16704   2.030   8.826   4.217
 4177SOL     OW16705   1.885   6.774   8.126
 4177SOL    HW116706   1.829   6.825   8.185
 4177SOL    HW216707   1.860   6.804   8.038
 4177SOL     MW16708   1.875   6.784   8.122
 4178SOL     OW16709   0.701   9.233   9.970
 4178SOL    HW116710   0.758   9.265   9.900
 4178SOL    HW216711   0.665   9.312  10.010
 4178SOL     MW16712   0.703   9.247   9.966
 4179SOL     OW16713   3.175   1.489   5.512
 4179SOL    HW116714   3.178   1.578   5.548
 4179SOL    HW216715   3.247   1.487   5.449
 4179SOL     MW16716   3.185   1.500   5.509
 4180SOL     OW16717   0.167   1.800   0.129
 4180SOL    HW116718   0.197   1.847   0.051
 4180SOL    HW216719   0.130   1.718   0.095
 4180SOL     MW16720   0.166   1.795   0.115
 4181SOL     OW16721   1.677   8.013   6.068
 4181SOL    HW116722   1.767   8.033   6.093
 4181SOL    HW216723   1.658   8.074   5.996
 4181SOL     MW16724   1.686   8.024   6.062
 4182SOL     OW16725   5.194   0.687   6.746
 4182SOL    HW116726   5.176   0.670   6.654
 4182SOL    HW216727   5.113   0.728   6.779
 4182SOL     MW16728   5.181   0.690   6.739
 4183SOL     OW16729  10.105   6.576   5.291
 4183SOL    HW116730  10.018   6.554   5.257
 4183SOL    HW216731  10.087   6.637   5.363
 4183SOL     MW16732  10.092   6.581   5.296
 4184SOL     OW16733   3.685   0.169   7.271
 4184SOL    HW116734   3.604   0.166   7.220
 4184SOL    HW216735   3.659   0.145   7.360
 4184SOL     MW16736   3.672   0.166   7.276
 4185SOL     OW16737   6.323   2.302   2.046
 4185SOL    HW116738   6.327   2.326   1.953
 4185SOL    HW216739   6.237   2.260   2.055
 4185SOL     MW16740   6.312   2.300   2.035
 4186SOL     OW16741   5.301   4.668  10.008
 4186SOL    HW116742   5.306   4.715  10.092
 4186SOL    HW216743   5.308   4.575  10.032
 4186SOL     MW16744   5.302   4.662  10.022
 4187SOL     OW16745   8.089   8.355   2.789
 4187SOL    HW116746   8.119   8.403   2.712
 4187SOL    HW216747   8.151   8.379   2.858
 4187SOL     MW16748   8.101   8.365   2.788
 4188SOL     OW16749   9.222   6.423   4.796
 4188SOL    HW116750   9.262   6.461   4.717
 4188SOL    HW216751   9.165   6.354   4.764
 4188SOL     MW16752   9.220   6.419   4.782
 4189SOL     OW16753   0.751   4.860   0.687
 4189SOL    HW116754   0.788   4.776   0.715
 4189SOL    HW216755   0.819   4.925   0.709
 4189SOL     MW16756   0.764   4.858   0.693
 4190SOL     OW16757   0.555   7.760   9.683
 4190SOL    HW116758   0.523   7.821   9.616
 4190SOL    HW216759   0.483   7.699   9.697
 4190SOL     MW16760   0.542   7.760   9.676
 4191SOL     OW16761   1.941   1.669   1.338
 4191SOL    HW116762   2.031   1.638   1.352
 4191SOL    HW216763   1.907   1.682   1.427
 4191SOL     MW16764   1.948   1.666   1.351
 4192SOL     OW16765   6.093   5.949   1.982
 4192SOL    HW116766   6.177   5.995   1.993
 4192SOL    HW216767   6.111   5.881   1.917
 4192SOL     MW16768   6.106   5.947   1.975
 4193SOL     OW16769   2.620   7.810   9.447
 4193SOL    HW116770   2.579   7.867   9.512
 4193SOL    HW216771   2.649   7.733   9.497
 4193SOL     MW16772   2.618   7.807   9.461
 4194SOL     OW16773   8.603   7.876   0.798
 4194SOL    HW116774   8.599   7.877   0.894
 4194SOL    HW216775   8.691   7.909   0.778
 4194SOL     MW16776   8.614   7.881   0.808
 4195SOL     OW16777   9.358   3.337   4.411
 4195SOL    HW116778   9.345   3.362   4.503
 4195SOL    HW216779   9.314   3.253   4.403
 4195SOL     MW16780   9.351   3.329   4.422
 4196SOL     OW16781   9.313   7.133   3.087
 4196SOL    HW116782   9.282   7.135   2.997
 4196SOL    HW216783   9.238   7.160   3.139
 4196SOL     MW16784   9.300   7.137   3.082
 4197SOL     OW16785   9.388   3.536   3.818
 4197SOL    HW116786   9.298   3.508   3.801
 4197SOL    HW216787   9.439   3.455   3.815
 4197SOL     MW16788   9.383   3.522   3.815
 4198SOL     OW16789   8.433   0.747   8.822
 4198SOL    HW116790   8.427   0.741   8.917
 4198SOL    HW216791   8.351   0.789   8.795
 4198SOL     MW16792   8.422   0.751   8.830
 4199SOL     OW16793   5.346   4.755   9.754
 4199SOL    HW116794   5.337   4.728   9.846
 4199SOL    HW216795   5.345   4.851   9.757
 4199SOL     MW16796   5.345   4.764   9.766
 4200SOL     OW16797   0.139   6.121   1.110
 4200SOL    HW116798   0.232   6.135   1.093
 4200SOL    HW216799   0.115   6.191   1.171
 4200SOL     MW16800   0.147   6.132   1.116
 4201SOL     OW16801   3.972   2.265   8.461
 4201SOL    HW116802   3.892   2.241   8.414
 4201SOL    HW216803   3.953   2.350   8.501
 4201SOL     MW16804   3.960   2.273   8.460
 4202SOL     OW16805   7.707   3.885   9.444
 4202SOL    HW116806   7.615   3.901   9.424
 4202SOL    HW216807   7.722   3.929   9.528
 4202SOL     MW16808   7.697   3.893   9.452
 4203SOL     OW16809   9.573   2.163   6.536
 4203SOL    HW116810   9.632   2.226   6.576
 4203SOL    HW216811   9.572   2.187   6.443
 4203SOL     MW16812   9.580   2.174   6.529
 4204SOL     OW16813   7.717   3.628   7.863
 4204SOL    HW116814   7.723   3.567   7.790
 4204SOL    HW216815   7.799   3.617   7.911
 4204SOL     MW16816   7.728   3.619   7.860
 4205SOL     OW16817   5.687   3.212   8.320
 4205SOL    HW116818   5.629   3.286   8.341
 4205SOL    HW216819   5.636   3.135   8.346
 4205SOL     MW16820   5.673   3.212   8.326
 4206SOL     OW16821   5.362   1.760   5.266
 4206SOL    HW116822   5.442   1.813   5.269
 4206SOL    HW216823   5.320   1.785   5.184
 4206SOL     MW16824   5.367   1.770   5.256
 4207SOL     OW16825   3.457   9.666   9.205
 4207SOL    HW116826   3.447   9.689   9.297
 4207SOL    HW216827   3.538   9.709   9.178
 4207SOL     MW16828   3.466   9.674   9.213
 4208SOL     OW16829   8.021   6.393   8.241
 4208SOL    HW116830   7.976   6.421   8.161
 4208SOL    HW216831   8.083   6.463   8.260
 4208SOL     MW16832   8.023   6.406   8.233
 4209SOL     OW16833   3.914   2.470   3.760
 4209SOL    HW116834   3.985   2.407   3.750
 4209SOL    HW216835   3.936   2.519   3.839
 4209SOL     MW16836   3.926   2.468   3.769
 4210SOL     OW16837   8.441   4.687   5.226
 4210SOL    HW116838   8.414   4.724   5.311
 4210SOL    HW216839   8.400   4.744   5.161
 4210SOL     MW16840   8.432   4.699   5.229
 4211SOL     OW16841   0.031   6.281   8.992
 4211SOL    HW116842   0.097   6.351   8.985
 4211SOL    HW216843   0.033   6.257   9.085
 4211SOL     MW16844   0.040   6.287   9.003
 4212SOL     OW16845   6.600   8.410   5.069
 4212SOL    HW116846   6.659   8.334   5.074
 4212SOL    HW216847   6.518   8.374   5.036
 4212SOL     MW16848   6.597   8.396   5.066
 4213SOL     OW16849   0.694   6.141   0.374
 4213SOL    HW116850   0.690   6.101   0.287
 4213SOL    HW216851   0.614   6.112   0.417
 4213SOL     MW16852   0.683   6.132   0.368
 4214SOL     OW16853   9.446   5.126   8.270
 4214SOL    HW116854   9.360   5.156   8.240
 4214SOL    HW216855   9.462   5.046   8.221
 4214SOL     MW16856   9.437   5.120   8.260
 4215SOL     OW16857   1.643   3.760   8.861
 4215SOL    HW116858   1.574   3.764   8.927
 4215SOL    HW216859   1.597   3.762   8.777
 4215SOL     MW16860   1.628   3.761   8.859
 4216SOL     OW16861   0.079   8.488   4.465
 4216SOL    HW116862   0.124   8.500   4.548
 4216SOL    HW216863  -0.010   8.520   4.481
 4216SOL     MW16864   0.073   8.494   4.477
 4217SOL     OW16865   3.463   2.337   3.426
 4217SOL    HW116866   3.538   2.309   3.479
 4217SOL    HW216867   3.432   2.417   3.469
 4217SOL     MW16868   3.469   2.344   3.438
 4218SOL     OW16869   7.668   8.846   0.545
 4218SOL    HW116870   7.597   8.781   0.546
 4218SOL    HW216871   7.625   8.928   0.521
 4218SOL     MW16872   7.653   8.848   0.542
 4219SOL     OW16873   1.515   1.910   2.360
 4219SOL    HW116874   1.461   1.988   2.348
 4219SOL    HW216875   1.585   1.919   2.295
 4219SOL     MW16876   1.517   1.921   2.350
 4220SOL     OW16877   2.797   2.937  -0.027
 4220SOL    HW116878   2.882   2.898  -0.006
 4220SOL    HW216879   2.742   2.919   0.049
 4220SOL     MW16880   2.801   2.929  -0.015
 4221SOL     OW16881   4.867   9.958   0.975
 4221SOL    HW116882   4.818  10.020   1.029
 4221SOL    HW216883   4.803   9.924   0.913
 4221SOL     MW16884   4.853   9.961   0.974
 4222SOL     OW16885   4.975   4.049   7.695
 4222SOL    HW116886   5.050   3.990   7.699
 4222SOL    HW216887   5.004   4.122   7.641
 4222SOL     MW16888   4.988   4.050   7.689
 4223SOL     OW16889   0.298   0.940   5.740
 4223SOL    HW116890   0.327   0.963   5.651
 4223SOL    HW216891   0.205   0.921   5.730
 4223SOL     MW16892   0.290   0.941   5.727
 4224SOL     OW16893   3.189   9.881   9.490
 4224SOL    HW116894   3.142   9.846   9.415
 4224SOL    HW216895   3.184   9.976   9.480
 4224SOL     MW16896   3.183   9.889   9.479
 4225SOL     OW16897   1.127   4.558   6.968
 4225SOL    HW116898   1.174   4.572   6.886
 4225SOL    HW216899   1.183   4.597   7.035
 4225SOL     MW16900   1.140   4.565   6.966
 4226SOL     OW16901   1.080   7.476   4.645
 4226SOL    HW116902   1.175   7.459   4.646
 4226SOL    HW216903   1.053   7.460   4.735
 4226SOL     MW16904   1.089   7.472   4.657
 4227SOL     OW16905   1.926   6.032   5.552
 4227SOL    HW116906   1.859   6.028   5.621
 4227SOL    HW216907   1.926   6.123   5.523
 4227SOL     MW16908   1.917   6.043   5.557
 4228SOL     OW16909   7.986   3.728   5.529
 4228SOL    HW116910   7.903   3.773   5.543
 4228SOL    HW216911   7.973   3.641   5.565
 4228SOL     MW16912   7.974   3.723   5.535
 4229SOL     OW16913   3.769   0.831   9.173
 4229SOL    HW116914   3.855   0.793   9.188
 4229SOL    HW216915   3.783   0.894   9.103
 4229SOL     MW16916   3.782   0.834   9.166
 4230SOL     OW16917   5.963   4.804   2.428
 4230SOL    HW116918   5.933   4.719   2.459
 4230SOL    HW216919   6.022   4.836   2.496
 4230SOL     MW16920   5.967   4.797   2.440
 4231SOL     OW16921  10.123   5.947   0.994
 4231SOL    HW116922  10.183   6.013   1.028
 4231SOL    HW216923  10.142   5.868   1.044
 4231SOL     MW16924  10.133   5.945   1.005
 4232SOL     OW16925   8.968   2.237   8.838
 4232SOL    HW116926   9.016   2.307   8.882
 4232SOL    HW216927   9.001   2.239   8.748
 4232SOL     MW16928   8.978   2.247   8.832
 4233SOL     OW16929   2.935   9.491   6.312
 4233SOL    HW116930   2.948   9.398   6.293
 4233SOL    HW216931   2.965   9.535   6.232
 4233SOL     MW16932   2.940   9.485   6.299
 4234SOL     OW16933   5.416   3.670   2.120
 4234SOL    HW116934   5.378   3.673   2.208
 4234SOL    HW216935   5.430   3.762   2.097
 4234SOL     MW16936   5.413   3.682   2.128
 4235SOL     OW16937   6.292   3.817   5.756
 4235SOL    HW116938   6.364   3.870   5.723
 4235SOL    HW216939   6.218   3.877   5.763
 4235SOL     MW16940   6.291   3.831   5.753
 4236SOL     OW16941   7.726   7.785   6.779
 4236SOL    HW116942   7.702   7.720   6.714
 4236SOL    HW216943   7.717   7.869   6.734
 4236SOL     MW16944   7.721   7.788   6.765
 4237SOL     OW16945   2.793   4.491   8.939
 4237SOL    HW116946   2.864   4.428   8.956
 4237SOL    HW216947   2.750   4.502   9.023
 4237SOL     MW16948   2.797   4.484   8.952
 4238SOL     OW16949   1.002   1.726   3.766
 4238SOL    HW116950   0.932   1.661   3.771
 4238SOL    HW216951   1.072   1.683   3.717
 4238SOL     MW16952   1.002   1.712   3.761
 4239SOL     OW16953   2.866   6.619   9.513
 4239SOL    HW116954   2.933   6.616   9.581
 4239SOL    HW216955   2.859   6.529   9.482
 4239SOL     MW16956   2.873   6.607   9.518
 4240SOL     OW16957   7.739   1.110   2.217
 4240SOL    HW116958   7.824   1.151   2.234
 4240SOL    HW216959   7.758   1.047   2.148
 4240SOL     MW16960   7.753   1.107   2.210
 4241SOL     OW16961   7.478   2.262   1.144
 4241SOL    HW116962   7.561   2.292   1.107
 4241SOL    HW216963   7.421   2.250   1.069
 4241SOL     MW16964   7.481   2.264   1.130
 4242SOL     OW16965   2.733   7.603   8.972
 4242SOL    HW116966   2.775   7.688   8.962
 4242SOL    HW216967   2.803   7.546   9.005
 4242SOL     MW16968   2.747   7.607   8.975
 4243SOL     OW16969   7.549   8.889   3.880
 4243SOL    HW116970   7.610   8.919   3.812
 4243SOL    HW216971   7.469   8.939   3.864
 4243SOL     MW16972   7.547   8.899   3.869
 4244SOL     OW16973   3.848   2.178   2.507
 4244SOL    HW116974   3.904   2.252   2.486
 4244SOL    HW216975   3.791   2.210   2.577
 4244SOL     MW16976   3.848   2.191   2.513
 4245SOL     OW16977   5.555   9.797   2.210
 4245SOL    HW116978   5.499   9.874   2.218
 4245SOL    HW216979   5.600   9.809   2.126
 4245SOL     MW16980   5.553   9.809   2.200
 4246SOL     OW16981   3.159   0.877   6.405
 4246SOL    HW116982   3.146   0.784   6.421
 4246SOL    HW216983   3.254   0.890   6.412
 4246SOL     MW16984   3.170   0.867   6.408
 4247SOL     OW16985   3.902   1.984   5.057
 4247SOL    HW116986   3.854   2.020   4.983
 4247SOL    HW216987   3.901   2.053   5.123
 4247SOL     MW16988   3.896   1.997   5.056
 4248SOL     OW16989   2.775   7.592   2.954
 4248SOL    HW116990   2.867   7.566   2.963
 4248SOL    HW216991   2.754   7.576   2.862
 4248SOL     MW16992   2.784   7.587   2.943
 4249SOL     OW16993   1.416   6.721   6.258
 4249SOL    HW116994   1.512   6.728   6.261
 4249SOL    HW216995   1.386   6.762   6.339
 4249SOL     MW16996   1.425   6.727   6.269
 4250SOL     OW16997   3.545   5.322   7.546
 4250SOL    HW116998   3.451   5.321   7.563
 4250SOL    HW216999   3.582   5.271   7.619
 4250SOL     MW17000   3.538   5.315   7.558
 4251SOL     OW17001   9.288   3.915   3.983
 4251SOL    HW117002   9.200   3.888   4.011
 4251SOL    HW217003   9.344   3.841   4.005
 4251SOL     MW17004   9.284   3.902   3.989
 4252SOL     OW17005   1.482   6.572   3.788
 4252SOL    HW117006   1.431   6.638   3.834
 4252SOL    HW217007   1.566   6.614   3.771
 4252SOL     MW17008   1.486   6.586   3.792
 4253SOL     OW17009   8.066   1.045   7.856
 4253SOL    HW117010   7.989   1.102   7.862
 4253SOL    HW217011   8.098   1.059   7.767
 4253SOL     MW17012   8.060   1.054   7.845
 4254SOL     OW17013   4.614   3.303   7.001
 4254SOL    HW117014   4.667   3.262   6.932
 4254SOL    HW217015   4.677   3.344   7.059
 4254SOL     MW17016   4.629   3.303   6.999
 4255SOL     OW17017   4.749   4.719   3.504
 4255SOL    HW117018   4.790   4.755   3.582
 4255SOL    HW217019   4.658   4.750   3.508
 4255SOL     MW17020   4.742   4.727   3.515
 4256SOL     OW17021   5.253   1.872   1.539
 4256SOL    HW117022   5.330   1.924   1.517
 4256SOL    HW217023   5.214   1.917   1.614
 4256SOL     MW17024   5.258   1.885   1.546
 4257SOL     OW17025   6.327   0.827   2.326
 4257SOL    HW117026   6.368   0.862   2.406
 4257SOL    HW217027   6.266   0.761   2.357
 4257SOL     MW17028   6.325   0.823   2.340
 4258SOL     OW17029   2.139   6.133   2.674
 4258SOL    HW117030   2.122   6.192   2.600
 4258SOL    HW217031   2.117   6.185   2.751
 4258SOL     MW17032   2.134   6.147   2.674
 4259SOL     OW17033   2.946   1.338   4.078
 4259SOL    HW117034   2.973   1.271   4.141
 4259SOL    HW217035   3.005   1.412   4.095
 4259SOL     MW17036   2.957   1.339   4.088
 4260SOL     OW17037   6.220   9.635   2.782
 4260SOL    HW117038   6.268   9.629   2.865
 4260SOL    HW217039   6.161   9.709   2.793
 4260SOL     MW17040   6.218   9.644   2.794
 4261SOL     OW17041   9.035   1.248   8.065
 4261SOL    HW117042   8.958   1.257   8.010
 4261SOL    HW217043   9.109   1.259   8.006
 4261SOL     MW17044   9.035   1.250   8.051
 4262SOL     OW17045   7.919   9.623   1.232
 4262SOL    HW117046   7.834   9.593   1.201
 4262SOL    HW217047   7.964   9.654   1.154
 4262SOL     MW17048   7.914   9.623   1.218
 4263SOL     OW17049   0.256   0.081   6.252
 4263SOL    HW117050   0.217   0.002   6.288
 4263SOL    HW217051   0.338   0.092   6.301
 4263SOL     MW17052   0.262   0.073   6.263
 4264SOL     OW17053   4.338   5.426   6.388
 4264SOL    HW117054   4.372   5.435   6.299
 4264SOL    HW217055   4.386   5.352   6.424
 4264SOL     MW17056   4.348   5.418   6.381
 4265SOL     OW17057   2.000   8.786   5.549
 4265SOL    HW117058   2.057   8.859   5.524
 4265SOL    HW217059   2.054   8.708   5.535
 4265SOL     MW17060   2.014   8.785   5.544
 4266SOL     OW17061   4.867   9.565   0.649
 4266SOL    HW117062   4.859   9.473   0.673
 4266SOL    HW217063   4.777   9.596   0.642
 4266SOL     MW17064   4.855   9.557   0.651
 4267SOL     OW17065   9.154   9.455   5.139
 4267SOL    HW117066   9.067   9.419   5.159
 4267SOL    HW217067   9.195   9.389   5.083
 4267SOL     MW17068   9.148   9.442   5.134
 4268SOL     OW17069   6.944   1.969   0.875
 4268SOL    HW117070   6.976   1.879   0.868
 4268SOL    HW217071   6.904   1.987   0.790
 4268SOL     MW17072   6.943   1.960   0.864
 4269SOL     OW17073   1.961   2.989   0.967
 4269SOL    HW117074   2.042   3.037   0.984
 4269SOL    HW217075   1.928   2.968   1.055
 4269SOL     MW17076   1.967   2.992   0.981
 4270SOL     OW17077   9.966   6.601   7.876
 4270SOL    HW117078   9.887   6.629   7.923
 4270SOL    HW217079   9.972   6.661   7.802
 4270SOL     MW17080   9.956   6.612   7.873
 4271SOL     OW17081   8.290   2.967   0.736
 4271SOL    HW117082   8.221   3.016   0.691
 4271SOL    HW217083   8.364   2.969   0.676
 4271SOL     MW17084   8.291   2.973   0.723
 4272SOL     OW17085   1.298   2.026   4.492
 4272SOL    HW117086   1.393   2.021   4.500
 4272SOL    HW217087   1.279   1.980   4.411
 4272SOL     MW17088   1.308   2.019   4.483
 4273SOL     OW17089   7.147   8.849   0.040
 4273SOL    HW117090   7.225   8.810   0.080
 4273SOL    HW217091   7.119   8.786  -0.025
 4273SOL     MW17092   7.154   8.836   0.037
 4274SOL     OW17093   3.376   5.287   9.060
 4274SOL    HW117094   3.467   5.259   9.051
 4274SOL    HW217095   3.327   5.226   9.005
 4274SOL     MW17096   3.382   5.276   9.052
 4275SOL     OW17097   5.830   5.336   4.813
 4275SOL    HW117098   5.847   5.252   4.772
 4275SOL    HW217099   5.793   5.390   4.743
 4275SOL     MW17100   5.827   5.332   4.799
 4276SOL     OW17101   1.640   3.784   7.589
 4276SOL    HW117102   1.594   3.776   7.673
 4276SOL    HW217103   1.570   3.783   7.524
 4276SOL     MW17104   1.625   3.783   7.591
 4277SOL     OW17105   2.545   8.651   5.226
 4277SOL    HW117106   2.573   8.742   5.224
 4277SOL    HW217107   2.450   8.656   5.239
 4277SOL     MW17108   2.536   8.663   5.228
 4278SOL     OW17109   6.784   2.087   0.387
 4278SOL    HW117110   6.832   2.154   0.339
 4278SOL    HW217111   6.823   2.087   0.475
 4278SOL     MW17112   6.795   2.095   0.392
 4279SOL     OW17113   6.198   5.464   9.676
 4279SOL    HW117114   6.114   5.510   9.675
 4279SOL    HW217115   6.231   5.473   9.587
 4279SOL     MW17116   6.191   5.471   9.664
 4280SOL     OW17117   4.704   8.611   5.894
 4280SOL    HW117118   4.749   8.638   5.814
 4280SOL    HW217119   4.756   8.538   5.927
 4280SOL     MW17120   4.717   8.605   5.888
 4281SOL     OW17121   1.977   5.568   8.614
 4281SOL    HW117122   2.038   5.621   8.562
 4281SOL    HW217123   2.007   5.578   8.704
 4281SOL     MW17124   1.988   5.576   8.618
 4282SOL     OW17125   7.095   7.282   1.195
 4282SOL    HW117126   7.095   7.327   1.280
 4282SOL    HW217127   7.181   7.302   1.158
 4282SOL     MW17128   7.106   7.291   1.201
 4283SOL     OW17129   0.025   0.494   6.731
 4283SOL    HW117130   0.027   0.487   6.636
 4283SOL    HW217131  -0.038   0.565   6.748
 4283SOL     MW17132   0.017   0.502   6.721
 4284SOL     OW17133   9.145   4.581   4.154
 4284SOL    HW117134   9.148   4.491   4.184
 4284SOL    HW217135   9.067   4.585   4.098
 4284SOL     MW17136   9.135   4.570   4.151
 4285SOL     OW17137   8.326   3.084   0.458
 4285SOL    HW117138   8.404   3.139   0.448
 4285SOL    HW217139   8.267   3.136   0.513
 4285SOL     MW17140   8.328   3.098   0.463
 4286SOL     OW17141   9.894   8.354   5.673
 4286SOL    HW117142   9.902   8.423   5.739
 4286SOL    HW217143   9.822   8.299   5.705
 4286SOL     MW17144   9.886   8.356   5.686
 4287SOL     OW17145   6.207   7.255   2.821
 4287SOL    HW117146   6.116   7.275   2.843
 4287SOL    HW217147   6.203   7.170   2.777
 4287SOL     MW17148   6.195   7.247   2.818
 4288SOL     OW17149   4.031   1.514   2.207
 4288SOL    HW117150   4.037   1.607   2.231
 4288SOL    HW217151   4.000   1.515   2.117
 4288SOL     MW17152   4.028   1.526   2.199
 4289SOL     OW17153   0.237   6.215   7.072
 4289SOL    HW117154   0.192   6.209   7.157
 4289SOL    HW217155   0.330   6.218   7.094
 4289SOL     MW17156   0.243   6.214   7.086
 4290SOL     OW17157   3.862   3.900   3.396
 4290SOL    HW117158   3.824   3.823   3.355
 4290SOL    HW217159   3.863   3.880   3.490
 4290SOL     MW17160   3.857   3.888   3.403
 4291SOL     OW17161   4.162   7.148   5.702
 4291SOL    HW117162   4.173   7.179   5.791
 4291SOL    HW217163   4.142   7.227   5.651
 4291SOL     MW17164   4.161   7.162   5.707
 4292SOL     OW17165   2.556   7.512   4.153
 4292SOL    HW117166   2.483   7.504   4.214
 4292SOL    HW217167   2.610   7.435   4.169
 4292SOL     MW17168   2.554   7.501   4.163
 4293SOL     OW17169   7.892   0.022  10.158
 4293SOL    HW117170   7.887   0.107  10.114
 4293SOL    HW217171   7.800  -0.007  10.165
 4293SOL     MW17172   7.879   0.029  10.153
 4294SOL     OW17173   9.629   9.240   1.447
 4294SOL    HW117174   9.609   9.147   1.440
 4294SOL    HW217175   9.648   9.253   1.540
 4294SOL     MW17176   9.629   9.230   1.458
 4295SOL     OW17177   3.245   3.194   9.553
 4295SOL    HW117178   3.272   3.276   9.594
 4295SOL    HW217179   3.274   3.203   9.462
 4295SOL     MW17180   3.252   3.206   9.547
 4296SOL     OW17181   4.508   4.250   5.012
 4296SOL    HW117182   4.593   4.208   5.024
 4296SOL    HW217183   4.488   4.289   5.096
 4296SOL     MW17184   4.516   4.249   5.024
 4297SOL     OW17185   5.309   8.673   0.340
 4297SOL    HW117186   5.330   8.674   0.246
 4297SOL    HW217187   5.329   8.761   0.371
 4297SOL     MW17188   5.315   8.684   0.332
 4298SOL     OW17189   8.571   4.586   0.178
 4298SOL    HW117190   8.625   4.556   0.105
 4298SOL    HW217191   8.633   4.625   0.239
 4298SOL     MW17192   8.586   4.587   0.177
 4299SOL     OW17193   4.265   6.793   4.715
 4299SOL    HW117194   4.229   6.836   4.793
 4299SOL    HW217195   4.287   6.864   4.656
 4299SOL     MW17196   4.263   6.807   4.718
 4300SOL     OW17197   4.655   9.649   0.334
 4300SOL    HW117198   4.635   9.625   0.244
 4300SOL    HW217199   4.749   9.631   0.343
 4300SOL     MW17200   4.665   9.644   0.324
 4301SOL     OW17201   5.943   6.280   2.192
 4301SOL    HW117202   5.918   6.229   2.116
 4301SOL    HW217203   5.913   6.228   2.267
 4301SOL     MW17204   5.936   6.267   2.192
 4302SOL     OW17205   7.098  10.140   7.232
 4302SOL    HW117206   7.182  10.098   7.215
 4302SOL    HW217207   7.067  10.167   7.146
 4302SOL     MW17208   7.105  10.138   7.219
 4303SOL     OW17209   0.890   8.813   2.326
 4303SOL    HW117210   0.985   8.824   2.329
 4303SOL    HW217211   0.877   8.723   2.297
 4303SOL     MW17212   0.901   8.803   2.323
 4304SOL     OW17213   8.025   8.024   7.663
 4304SOL    HW117214   7.939   7.996   7.695
 4304SOL    HW217215   8.010   8.047   7.571
 4304SOL     MW17216   8.012   8.023   7.655
 4305SOL     OW17217   4.569   3.278   8.759
 4305SOL    HW117218   4.628   3.206   8.736
 4305SOL    HW217219   4.562   3.330   8.679
 4305SOL     MW17220   4.575   3.275   8.746
 4306SOL     OW17221   5.657   0.585   1.882
 4306SOL    HW117222   5.601   0.513   1.909
 4306SOL    HW217223   5.650   0.586   1.786
 4306SOL     MW17224   5.649   0.576   1.873
 4307SOL     OW17225   5.611   7.968   2.250
 4307SOL    HW117226   5.551   8.042   2.259
 4307SOL    HW217227   5.684   7.990   2.308
 4307SOL     MW17228   5.613   7.981   2.259
 4308SOL     OW17229   5.659   3.132   1.393
 4308SOL    HW117230   5.607   3.127   1.474
 4308SOL    HW217231   5.660   3.225   1.370
 4308SOL     MW17232   5.653   3.143   1.401
 4309SOL     OW17233   2.992   3.568   8.553
 4309SOL    HW117234   2.913   3.618   8.572
 4309SOL    HW217235   2.962   3.497   8.495
 4309SOL     MW17236   2.978   3.565   8.548
 4310SOL     OW17237   5.439   7.579   8.913
 4310SOL    HW117238   5.463   7.629   8.992
 4310SOL    HW217239   5.498   7.613   8.845
 4310SOL     MW17240   5.450   7.590   8.914
 4311SOL     OW17241   5.673   7.939   9.112
 4311SOL    HW117242   5.666   8.027   9.149
 4311SOL    HW217243   5.763   7.934   9.080
 4311SOL     MW17244   5.684   7.950   9.113
 4312SOL     OW17245  10.077   3.687   1.564
 4312SOL    HW117246  10.058   3.774   1.601
 4312SOL    HW217247   9.999   3.666   1.512
 4312SOL     MW17248  10.064   3.696   1.562
 4313SOL     OW17249   8.825   7.592   9.309
 4313SOL    HW117250   8.847   7.518   9.253
 4313SOL    HW217251   8.910   7.629   9.334
 4313SOL     MW17252   8.839   7.587   9.305
 4314SOL     OW17253   3.209   8.488   2.331
 4314SOL    HW117254   3.132   8.504   2.386
 4314SOL    HW217255   3.255   8.417   2.375
 4314SOL     MW17256   3.205   8.481   2.344
 4315SOL     OW17257   4.514   3.342   2.411
 4315SOL    HW117258   4.492   3.395   2.488
 4315SOL    HW217259   4.547   3.406   2.348
 4315SOL     MW17260   4.515   3.357   2.413
 4316SOL     OW17261   4.655   0.913   1.788
 4316SOL    HW117262   4.717   0.952   1.727
 4316SOL    HW217263   4.618   0.987   1.836
 4316SOL     MW17264   4.658   0.927   1.786
 4317SOL     OW17265   5.821   4.223   9.541
 4317SOL    HW117266   5.817   4.149   9.601
 4317SOL    HW217267   5.785   4.297   9.590
 4317SOL     MW17268   5.816   4.223   9.555
 4318SOL     OW17269   4.477   7.941   7.157
 4318SOL    HW117270   4.476   7.956   7.251
 4318SOL    HW217271   4.569   7.953   7.132
 4318SOL     MW17272   4.489   7.944   7.165
 4319SOL     OW17273   1.631   4.027   7.916
 4319SOL    HW117274   1.701   4.047   7.977
 4319SOL    HW217275   1.667   4.048   7.830
 4319SOL     MW17276   1.644   4.032   7.913
 4320SOL     OW17277   6.020   5.464   2.726
 4320SOL    HW117278   6.106   5.427   2.748
 4320SOL    HW217279   5.986   5.407   2.658
 4320SOL     MW17280   6.027   5.452   2.720
 4321SOL     OW17281   8.367   2.177   6.139
 4321SOL    HW117282   8.349   2.243   6.206
 4321SOL    HW217283   8.359   2.224   6.056
 4321SOL     MW17284   8.364   2.191   6.137
 4322SOL     OW17285   8.066   4.333   6.699
 4322SOL    HW117286   8.031   4.352   6.612
 4322SOL    HW217287   8.156   4.367   6.697
 4322SOL     MW17288   8.073   4.340   6.688
 4323SOL     OW17289   4.222   6.527   4.650
 4323SOL    HW117290   4.233   6.620   4.669
 4323SOL    HW217291   4.293   6.485   4.697
 4323SOL     MW17292   4.232   6.534   4.659
 4324SOL     OW17293   0.959   4.257   7.240
 4324SOL    HW117294   1.037   4.281   7.189
 4324SOL    HW217295   0.941   4.167   7.214
 4324SOL     MW17296   0.967   4.249   7.231
 4325SOL     OW17297   8.676   9.584   7.808
 4325SOL    HW117298   8.600   9.588   7.750
 4325SOL    HW217299   8.644   9.619   7.891
 4325SOL     MW17300   8.662   9.589   7.811
 4326SOL     OW17301   9.294   9.915   9.557
 4326SOL    HW117302   9.206   9.951   9.562
 4326SOL    HW217303   9.346   9.983   9.514
 4326SOL     MW17304   9.290   9.929   9.552
 4327SOL     OW17305   7.782   4.020   6.257
 4327SOL    HW117306   7.731   3.977   6.325
 4327SOL    HW217307   7.732   4.007   6.177
 4327SOL     MW17308   7.769   4.013   6.256
 4328SOL     OW17309   8.122   4.864   4.366
 4328SOL    HW117310   8.178   4.823   4.432
 4328SOL    HW217311   8.182   4.919   4.315
 4328SOL     MW17312   8.137   4.866   4.368
 4329SOL     OW17313   0.570   5.683   4.087
 4329SOL    HW117314   0.479   5.664   4.065
 4329SOL    HW217315   0.577   5.779   4.081
 4329SOL     MW17316   0.559   5.693   4.083
 4330SOL     OW17317   4.083   4.362   3.431
 4330SOL    HW117318   4.159   4.335   3.381
 4330SOL    HW217319   4.016   4.297   3.410
 4330SOL     MW17320   4.084   4.350   3.422
 4331SOL     OW17321   8.567   5.801   9.543
 4331SOL    HW117322   8.532   5.887   9.567
 4331SOL    HW217323   8.518   5.739   9.598
 4331SOL     MW17324   8.556   5.804   9.554
 4332SOL     OW17325  10.000   0.325   8.921
 4332SOL    HW117326   9.906   0.316   8.937
 4332SOL    HW217327  10.020   0.257   8.857
 4332SOL     MW17328   9.990   0.315   8.915
 4333SOL     OW17329   1.587   5.539   7.398
 4333SOL    HW117330   1.638   5.609   7.356
 4333SOL    HW217331   1.649   5.494   7.454
 4333SOL     MW17332   1.601   5.542   7.400
 4334SOL     OW17333   0.320   2.701   2.654
 4334SOL    HW117334   0.371   2.739   2.583
 4334SOL    HW217335   0.233   2.685   2.617
 4334SOL     MW17336   0.315   2.704   2.640
 4335SOL     OW17337   5.707   9.007   1.478
 4335SOL    HW117338   5.792   8.991   1.437
 4335SOL    HW217339   5.701   8.940   1.546
 4335SOL     MW17340   5.718   8.996   1.481
 4336SOL     OW17341   5.848   8.502   7.906
 4336SOL    HW117342   5.769   8.478   7.954
 4336SOL    HW217343   5.825   8.491   7.814
 4336SOL     MW17344   5.835   8.497   7.900
 4337SOL     OW17345   6.128   7.902   2.796
 4337SOL    HW117346   6.176   7.943   2.867
 4337SOL    HW217347   6.187   7.835   2.762
 4337SOL     MW17348   6.142   7.899   2.801
 4338SOL     OW17349   9.467   8.763   6.221
 4338SOL    HW117350   9.402   8.796   6.159
 4338SOL    HW217351   9.471   8.669   6.203
 4338SOL     MW17352   9.459   8.755   6.211
 4339SOL     OW17353   6.668   8.643   5.197
 4339SOL    HW117354   6.587   8.693   5.186
 4339SOL    HW217355   6.650   8.559   5.153
 4339SOL     MW17356   6.655   8.638   5.190
 4340SOL     OW17357   0.491   2.388   3.079
 4340SOL    HW117358   0.566   2.373   3.022
 4340SOL    HW217359   0.431   2.441   3.026
 4340SOL     MW17360   0.493   2.393   3.065
 4341SOL     OW17361   4.878   3.209   3.307
 4341SOL    HW117362   4.972   3.210   3.328
 4341SOL    HW217363   4.860   3.297   3.273
 4341SOL     MW17364   4.888   3.221   3.305
 4342SOL     OW17365   7.543   4.997   9.060
 4342SOL    HW117366   7.601   5.072   9.046
 4342SOL    HW217367   7.471   5.011   8.999
 4342SOL     MW17368   7.541   5.009   9.051
 4343SOL     OW17369   0.897   2.623   9.100
 4343SOL    HW117370   0.965   2.685   9.076
 4343SOL    HW217371   0.942   2.556   9.151
 4343SOL     MW17372   0.911   2.622   9.104
 4344SOL     OW17373   2.514   7.624   3.910
 4344SOL    HW117374   2.530   7.583   3.995
 4344SOL    HW217375   2.556   7.710   3.917
 4344SOL     MW17376   2.521   7.630   3.922
 4345SOL     OW17377   9.038   0.664   9.987
 4345SOL    HW117378   9.006   0.596   9.927
 4345SOL    HW217379   9.120   0.628  10.021
 4345SOL     MW17380   9.044   0.650   9.984
 4346SOL     OW17381   7.151   8.067   7.234
 4346SOL    HW117382   7.097   8.053   7.312
 4346SOL    HW217383   7.119   8.149   7.197
 4346SOL     MW17384   7.140   8.075   7.239
 4347SOL     OW17385   3.800   5.557   2.707
 4347SOL    HW117386   3.783   5.465   2.725
 4347SOL    HW217387   3.713   5.596   2.692
 4347SOL     MW17388   3.787   5.550   2.707
 4348SOL     OW17389   0.048   5.373   9.281
 4348SOL    HW117390  -0.006   5.440   9.239
 4348SOL    HW217391   0.031   5.383   9.375
 4348SOL     MW17392   0.039   5.383   9.288
 4349SOL     OW17393   7.438   3.910   3.496
 4349SOL    HW117394   7.407   3.840   3.554
 4349SOL    HW217395   7.380   3.984   3.515
 4349SOL     MW17396   7.426   3.910   3.506
 4350SOL     OW17397   5.880   5.320   3.578
 4350SOL    HW117398   5.855   5.411   3.596
 4350SOL    HW217399   5.800   5.270   3.589
 4350SOL     MW17400   5.867   5.325   3.581
 4351SOL     OW17401   6.603   0.095   1.429
 4351SOL    HW117402   6.687   0.134   1.454
 4351SOL    HW217403   6.586   0.130   1.341
 4351SOL     MW17404   6.612   0.104   1.421
 4352SOL     OW17405   9.789   4.129   5.853
 4352SOL    HW117406   9.757   4.060   5.911
 4352SOL    HW217407   9.871   4.094   5.818
 4352SOL     MW17408   9.795   4.116   5.856
 4353SOL     OW17409   2.310   4.283   7.898
 4353SOL    HW117410   2.313   4.376   7.920
 4353SOL    HW217411   2.217   4.259   7.905
 4353SOL     MW17412   2.298   4.292   7.902
 4354SOL     OW17413   9.801   3.805   6.220
 4354SOL    HW117414   9.889   3.836   6.239
 4354SOL    HW217415   9.811   3.747   6.145
 4354SOL     MW17416   9.813   3.802   6.213
 4355SOL     OW17417   2.628   5.153   0.508
 4355SOL    HW117418   2.609   5.071   0.554
 4355SOL    HW217419   2.570   5.150   0.431
 4355SOL     MW17420   2.618   5.142   0.504
 4356SOL     OW17421   6.996   0.145   2.815
 4356SOL    HW117422   7.044   0.138   2.898
 4356SOL    HW217423   7.061   0.178   2.753
 4356SOL     MW17424   7.011   0.148   2.818
 4357SOL     OW17425   0.076   5.203   3.174
 4357SOL    HW117426   0.014   5.131   3.157
 4357SOL    HW217427   0.023   5.269   3.218
 4357SOL     MW17428   0.061   5.202   3.177
 4358SOL     OW17429   9.265   3.098   9.562
 4358SOL    HW117430   9.203   3.163   9.531
 4358SOL    HW217431   9.330   3.091   9.492
 4358SOL     MW17432   9.266   3.106   9.549
 4359SOL     OW17433   5.610   9.009   8.654
 4359SOL    HW117434   5.551   8.971   8.589
 4359SOL    HW217435   5.611   9.103   8.632
 4359SOL     MW17436   5.602   9.016   8.642
 4360SOL     OW17437   4.442   0.804   7.105
 4360SOL    HW117438   4.404   0.719   7.086
 4360SOL    HW217439   4.390   0.837   7.179
 4360SOL     MW17440   4.431   0.798   7.112
 4361SOL     OW17441   4.434   6.141   9.549
 4361SOL    HW117442   4.352   6.162   9.595
 4361SOL    HW217443   4.452   6.050   9.573
 4361SOL     MW17444   4.426   6.132   9.558
 4362SOL     OW17445   2.146   2.493   4.996
 4362SOL    HW117446   2.141   2.583   5.028
 4362SOL    HW217447   2.232   2.462   5.026
 4362SOL     MW17448   2.156   2.500   5.004
 4363SOL     OW17449   5.019   6.994   0.593
 4363SOL    HW117450   5.062   6.950   0.520
 4363SOL    HW217451   4.947   6.936   0.616
 4363SOL     MW17452   5.015   6.981   0.586
 4364SOL     OW17453   5.450   7.382   1.785
 4364SOL    HW117454   5.425   7.361   1.875
 4364SOL    HW217455   5.479   7.473   1.789
 4364SOL     MW17456   5.451   7.391   1.797
 4365SOL     OW17457   2.343  10.057   6.717
 4365SOL    HW117458   2.359  10.149   6.701
 4365SOL    HW217459   2.361  10.046   6.811
 4365SOL     MW17460   2.347  10.067   6.727
 4366SOL     OW17461   9.002   5.851   7.452
 4366SOL    HW117462   8.923   5.854   7.506
 4366SOL    HW217463   9.071   5.887   7.508
 4366SOL     MW17464   9.001   5.856   7.466
 4367SOL     OW17465   0.803   9.819   7.625
 4367SOL    HW117466   0.864   9.745   7.627
 4367SOL    HW217467   0.851   9.888   7.578
 4367SOL     MW17468   0.817   9.819   7.619
 4368SOL     OW17469   9.683   4.849   9.432
 4368SOL    HW117470   9.642   4.892   9.357
 4368SOL    HW217471   9.623   4.777   9.454
 4368SOL     MW17472   9.670   4.846   9.426
 4369SOL     OW17473   0.391   8.934   3.634
 4369SOL    HW117474   0.453   8.885   3.580
 4369SOL    HW217475   0.329   8.869   3.666
 4369SOL     MW17476   0.391   8.920   3.631
 4370SOL     OW17477   1.551   0.420   3.730
 4370SOL    HW117478   1.523   0.468   3.652
 4370SOL    HW217479   1.506   0.463   3.802
 4370SOL     MW17480   1.542   0.431   3.729
 4371SOL     OW17481   4.780   8.532   0.073
 4371SOL    HW117482   4.700   8.482   0.058
 4371SOL    HW217483   4.753   8.602   0.133
 4371SOL     MW17484   4.766   8.535   0.079
 4372SOL     OW17485   9.300   2.549   4.905
 4372SOL    HW117486   9.213   2.545   4.945
 4372SOL    HW217487   9.348   2.610   4.960
 4372SOL     MW17488   9.295   2.556   4.917
 4373SOL     OW17489   8.320   3.358   5.351
 4373SOL    HW117490   8.375   3.322   5.421
 4373SOL    HW217491   8.366   3.437   5.322
 4373SOL     MW17492   8.333   3.363   5.356
 4374SOL     OW17493   0.816   7.634   0.609
 4374SOL    HW117494   0.762   7.608   0.534
 4374SOL    HW217495   0.892   7.677   0.569
 4374SOL     MW17496   0.819   7.636   0.594
 4375SOL     OW17497   8.721   6.062   3.162
 4375SOL    HW117498   8.678   6.033   3.081
 4375SOL    HW217499   8.748   6.152   3.144
 4375SOL     MW17500   8.719   6.069   3.149
 4376SOL     OW17501   5.304   9.991   0.338
 4376SOL    HW117502   5.228  10.039   0.371
 4376SOL    HW217503   5.372  10.005   0.405
 4376SOL     MW17504   5.303   9.999   0.351
 4377SOL     OW17505   8.969   0.896   6.779
 4377SOL    HW117506   8.945   0.810   6.743
 4377SOL    HW217507   9.055   0.915   6.740
 4377SOL     MW17508   8.977   0.887   6.770
 4378SOL     OW17509   3.897   0.374   2.581
 4378SOL    HW117510   3.825   0.406   2.636
 4378SOL    HW217511   3.977   0.403   2.627
 4378SOL     MW17512   3.898   0.382   2.594
 4379SOL     OW17513   0.439   4.255  10.090
 4379SOL    HW117514   0.472   4.246  10.000
 4379SOL    HW217515   0.511   4.297  10.137
 4379SOL     MW17516   0.453   4.259  10.084
 4380SOL     OW17517   9.803   6.161   1.932
 4380SOL    HW117518   9.857   6.232   1.897
 4380SOL    HW217519   9.860   6.116   1.995
 4380SOL     MW17520   9.817   6.164   1.936
 4381SOL     OW17521   8.115   3.285   3.591
 4381SOL    HW117522   8.023   3.294   3.616
 4381SOL    HW217523   8.113   3.248   3.503
 4381SOL     MW17524   8.103   3.282   3.583
 4382SOL     OW17525   1.611   7.824   7.642
 4382SOL    HW117526   1.658   7.876   7.577
 4382SOL    HW217527   1.545   7.776   7.591
 4382SOL     MW17528   1.609   7.824   7.627
 4383SOL     OW17529   5.469   2.136   8.358
 4383SOL    HW117530   5.460   2.137   8.262
 4383SOL    HW217531   5.557   2.170   8.374
 4383SOL     MW17532   5.479   2.141   8.347
 4384SOL     OW17533   2.782   5.053   6.851
 4384SOL    HW117534   2.742   4.970   6.878
 4384SOL    HW217535   2.793   5.044   6.756
 4384SOL     MW17536   2.778   5.041   6.842
 4385SOL     OW17537   5.450   6.917   6.536
 4385SOL    HW117538   5.500   6.835   6.539
 4385SOL    HW217539   5.429   6.935   6.627
 4385SOL     MW17540   5.454   6.909   6.548
 4386SOL     OW17541   1.139   2.120   4.714
 4386SOL    HW117542   1.170   2.055   4.651
 4386SOL    HW217543   1.185   2.201   4.691
 4386SOL     MW17544   1.149   2.122   4.703
 4387SOL     OW17545   5.183   1.444   0.207
 4387SOL    HW117546   5.110   1.505   0.216
 4387SOL    HW217547   5.260   1.499   0.190
 4387SOL     MW17548   5.184   1.459   0.206
 4388SOL     OW17549   4.876   1.092   1.102
 4388SOL    HW117550   4.964   1.054   1.097
 4388SOL    HW217551   4.877   1.163   1.037
 4388SOL     MW17552   4.887   1.096   1.093
 4389SOL     OW17553   7.182   4.562   2.281
 4389SOL    HW117554   7.169   4.568   2.187
 4389SOL    HW217555   7.228   4.643   2.304
 4389SOL     MW17556   7.186   4.573   2.272
 4390SOL     OW17557   0.564   5.066   8.553
 4390SOL    HW117558   0.572   5.085   8.647
 4390SOL    HW217559   0.552   4.971   8.549
 4390SOL     MW17560   0.564   5.056   8.565
 4391SOL     OW17561   3.468   5.562   6.613
 4391SOL    HW117562   3.478   5.473   6.580
 4391SOL    HW217563   3.553   5.604   6.598
 4391SOL     MW17564   3.480   5.556   6.607
 4392SOL     OW17565   2.642   3.520   2.761
 4392SOL    HW117566   2.681   3.444   2.718
 4392SOL    HW217567   2.617   3.578   2.689
 4392SOL     MW17568   2.644   3.518   2.746
 4393SOL     OW17569   9.001   1.896   8.295
 4393SOL    HW117570   8.906   1.881   8.304
 4393SOL    HW217571   9.014   1.910   8.201
 4393SOL     MW17572   8.990   1.896   8.284
 4394SOL     OW17573   7.244   1.222   7.166
 4394SOL    HW117574   7.235   1.210   7.260
 4394SOL    HW217575   7.195   1.149   7.127
 4394SOL     MW17576   7.237   1.211   7.173
 4395SOL     OW17577   4.559   7.688   7.084
 4395SOL    HW117578   4.509   7.764   7.115
 4395SOL    HW217579   4.493   7.623   7.061
 4395SOL     MW17580   4.545   7.690   7.085
 4396SOL     OW17581   1.841   0.262   8.340
 4396SOL    HW117582   1.843   0.357   8.350
 4396SOL    HW217583   1.756   0.235   8.376
 4396SOL     MW17584   1.830   0.270   8.346
 4397SOL     OW17585   7.504   3.799   7.898
 4397SOL    HW117586   7.469   3.769   7.982
 4397SOL    HW217587   7.580   3.743   7.883
 4397SOL     MW17588   7.509   3.788   7.907
 4398SOL     OW17589   9.034   0.496   8.916
 4398SOL    HW117590   9.107   0.444   8.882
 4398SOL    HW217591   8.968   0.492   8.846
 4398SOL     MW17592   9.035   0.488   8.902
 4399SOL     OW17593   5.597   7.681   0.041
 4399SOL    HW117594   5.655   7.677  -0.035
 4399SOL    HW217595   5.528   7.743   0.015
 4399SOL     MW17596   5.596   7.689   0.028
 4400SOL     OW17597   7.960   8.018   0.495
 4400SOL    HW117598   7.980   8.109   0.514
 4400SOL    HW217599   8.046   7.975   0.490
 4400SOL     MW17600   7.974   8.024   0.497
 4401SOL     OW17601   9.512   7.196   8.421
 4401SOL    HW117602   9.444   7.143   8.463
 4401SOL    HW217603   9.579   7.133   8.394
 4401SOL     MW17604   9.512   7.181   8.423
 4402SOL     OW17605   2.864   6.439   5.044
 4402SOL    HW117606   2.868   6.440   4.948
 4402SOL    HW217607   2.893   6.351   5.068
 4402SOL     MW17608   2.868   6.428   5.034
 4403SOL     OW17609   6.628   2.495   8.592
 4403SOL    HW117610   6.619   2.471   8.684
 4403SOL    HW217611   6.712   2.458   8.566
 4403SOL     MW17612   6.638   2.487   8.601
 4404SOL     OW17613   4.394   0.607   3.897
 4404SOL    HW117614   4.471   0.552   3.903
 4404SOL    HW217615   4.320   0.546   3.901
 4404SOL     MW17616   4.394   0.592   3.899
 4405SOL     OW17617   5.394   5.613   5.397
 4405SOL    HW117618   5.342   5.635   5.320
 4405SOL    HW217619   5.420   5.697   5.435
 4405SOL     MW17620   5.391   5.626   5.392
 4406SOL     OW17621   9.184   2.151   1.162
 4406SOL    HW117622   9.187   2.067   1.208
 4406SOL    HW217623   9.272   2.187   1.171
 4406SOL     MW17624   9.195   2.145   1.169
 4407SOL     OW17625   6.243   6.287   5.823
 4407SOL    HW117626   6.203   6.214   5.870
 4407SOL    HW217627   6.282   6.247   5.745
 4407SOL     MW17628   6.243   6.272   5.819
 4408SOL     OW17629   5.963   2.478   1.355
 4408SOL    HW117630   5.898   2.410   1.337
 4408SOL    HW217631   6.032   2.433   1.403
 4408SOL     MW17632   5.963   2.464   1.359
 4409SOL     OW17633   4.286   3.191   4.177
 4409SOL    HW117634   4.353   3.190   4.246
 4409SOL    HW217635   4.221   3.128   4.206
 4409SOL     MW17636   4.287   3.183   4.190
 4410SOL     OW17637   9.804   6.773   5.848
 4410SOL    HW117638   9.778   6.682   5.835
 4410SOL    HW217639   9.899   6.772   5.838
 4410SOL     MW17640   9.813   6.761   5.845
 4411SOL     OW17641   6.973   7.738   7.360
 4411SOL    HW117642   6.961   7.825   7.398
 4411SOL    HW217643   7.039   7.751   7.292
 4411SOL     MW17644   6.980   7.751   7.356
 4412SOL     OW17645   6.724  10.018   1.476
 4412SOL    HW117646   6.659  10.084   1.453
 4412SOL    HW217647   6.806  10.066   1.485
 4412SOL     MW17648   6.726  10.032   1.475
 4413SOL     OW17649   8.260   7.835   0.215
 4413SOL    HW117650   8.315   7.758   0.226
 4413SOL    HW217651   8.315   7.898   0.169
 4413SOL     MW17652   8.274   7.833   0.210
 4414SOL     OW17653   5.310   4.792   0.091
 4414SOL    HW117654   5.242   4.859   0.081
 4414SOL    HW217655   5.283   4.743   0.168
 4414SOL     MW17656   5.298   4.794   0.099
 4415SOL     OW17657   3.434   9.981   4.671
 4415SOL    HW117658   3.517   9.963   4.626
 4415SOL    HW217659   3.401   9.895   4.695
 4415SOL     MW17660   3.441   9.968   4.668
 4416SOL     OW17661   1.701   9.609   6.775
 4416SOL    HW117662   1.771   9.661   6.735
 4416SOL    HW217663   1.641   9.590   6.702
 4416SOL     MW17664   1.702   9.613   6.760
 4417SOL     OW17665   9.132   0.466   1.900
 4417SOL    HW117666   9.072   0.539   1.911
 4417SOL    HW217667   9.205   0.503   1.849
 4417SOL     MW17668   9.134   0.480   1.895
 4418SOL     OW17669   8.775   6.656   9.993
 4418SOL    HW117670   8.838   6.677  10.061
 4418SOL    HW217671   8.828   6.625   9.919
 4418SOL     MW17672   8.790   6.655   9.992
 4419SOL     OW17673   3.925   6.455   8.503
 4419SOL    HW117674   4.005   6.431   8.550
 4419SOL    HW217675   3.855   6.443   8.568
 4419SOL     MW17676   3.927   6.450   8.517
 4420SOL     OW17677   6.443   4.412   7.338
 4420SOL    HW117678   6.385   4.428   7.412
 4420SOL    HW217679   6.423   4.322   7.312
 4420SOL     MW17680   6.433   4.402   7.344
 4421SOL     OW17681   5.615   9.270   8.573
 4421SOL    HW117682   5.573   9.350   8.605
 4421SOL    HW217683   5.678   9.301   8.508
 4421SOL     MW17684   5.617   9.285   8.568
 4422SOL     OW17685   6.896   1.758   4.711
 4422SOL    HW117686   6.827   1.695   4.732
 4422SOL    HW217687   6.920   1.797   4.795
 4422SOL     MW17688   6.890   1.755   4.724
 4423SOL     OW17689   8.214   3.180   0.904
 4423SOL    HW117690   8.263   3.105   0.870
 4423SOL    HW217691   8.168   3.146   0.980
 4423SOL     MW17692   8.214   3.166   0.909
 4424SOL     OW17693   7.034   1.777   4.475
 4424SOL    HW117694   6.990   1.766   4.560
 4424SOL    HW217695   6.994   1.855   4.437
 4424SOL     MW17696   7.023   1.786   4.481
 4425SOL     OW17697   6.378   1.450   9.786
 4425SOL    HW117698   6.369   1.475   9.694
 4425SOL    HW217699   6.302   1.488   9.829
 4425SOL     MW17700   6.367   1.458   9.779
 4426SOL     OW17701   5.821   7.481   2.715
 4426SOL    HW117702   5.880   7.555   2.703
 4426SOL    HW217703   5.751   7.494   2.651
 4426SOL     MW17704   5.819   7.492   2.705
 4427SOL     OW17705   8.723   7.491   0.430
 4427SOL    HW117706   8.773   7.480   0.350
 4427SOL    HW217707   8.697   7.583   0.431
 4427SOL     MW17708   8.726   7.501   0.420
 4428SOL     OW17709   7.472   3.032   8.743
 4428SOL    HW117710   7.529   3.062   8.672
 4428SOL    HW217711   7.482   3.099   8.812
 4428SOL     MW17712   7.480   3.045   8.743
 4429SOL     OW17713   7.871   3.712   0.979
 4429SOL    HW117714   7.813   3.696   1.053
 4429SOL    HW217715   7.813   3.714   0.903
 4429SOL     MW17716   7.856   3.710   0.979
 4430SOL     OW17717   7.305   7.057   9.176
 4430SOL    HW117718   7.226   7.005   9.158
 4430SOL    HW217719   7.306   7.067   9.271
 4430SOL     MW17720   7.295   7.052   9.186
 4431SOL     OW17721   5.913  10.015   9.290
 4431SOL    HW117722   5.998  10.058   9.279
 4431SOL    HW217723   5.902   9.962   9.212
 4431SOL     MW17724   5.922  10.014   9.279
 4432SOL     OW17725   4.026   0.689   4.197
 4432SOL    HW117726   3.971   0.735   4.260
 4432SOL    HW217727   4.107   0.741   4.193
 4432SOL     MW17728   4.030   0.702   4.205
 4433SOL     OW17729   2.350   4.408   8.253
 4433SOL    HW117730   2.392   4.462   8.320
 4433SOL    HW217731   2.349   4.464   8.175
 4433SOL     MW17732   2.355   4.422   8.252
 4434SOL     OW17733   3.239   4.226   5.177
 4434SOL    HW117734   3.255   4.267   5.262
 4434SOL    HW217735   3.205   4.297   5.122
 4434SOL     MW17736   3.237   4.240   5.180
 4435SOL     OW17737   5.664  10.168   1.168
 4435SOL    HW117738   5.654  10.088   1.219
 4435SOL    HW217739   5.581  10.178   1.121
 4435SOL     MW17740   5.652  10.159   1.169
 4436SOL     OW17741   9.864   1.731   2.243
 4436SOL    HW117742   9.905   1.776   2.317
 4436SOL    HW217743   9.787   1.783   2.222
 4436SOL     MW17744   9.859   1.743   2.250
 4437SOL     OW17745   3.239   8.383   1.609
 4437SOL    HW117746   3.194   8.431   1.678
 4437SOL    HW217747   3.288   8.316   1.656
 4437SOL     MW17748   3.239   8.381   1.624
 4438SOL     OW17749   2.508   1.578   8.757
 4438SOL    HW117750   2.500   1.501   8.815
 4438SOL    HW217751   2.588   1.561   8.707
 4438SOL     MW17752   2.517   1.566   8.758
 4439SOL     OW17753   9.955   7.357   4.656
 4439SOL    HW117754   9.942   7.405   4.738
 4439SOL    HW217755  10.019   7.290   4.677
 4439SOL     MW17756   9.962   7.355   4.669
 4440SOL     OW17757   7.225   8.099   7.738
 4440SOL    HW117758   7.135   8.122   7.713
 4440SOL    HW217759   7.244   8.020   7.687
 4440SOL     MW17760   7.216   8.091   7.728
 4441SOL     OW17761   2.755   2.863   3.421
 4441SOL    HW117762   2.730   2.950   3.389
 4441SOL    HW217763   2.689   2.804   3.384
 4441SOL     MW17764   2.744   2.867   3.412
 4442SOL     OW17765   7.424   3.981   6.593
 4442SOL    HW117766   7.439   4.044   6.664
 4442SOL    HW217767   7.410   3.898   6.638
 4442SOL     MW17768   7.424   3.979   6.608
 4443SOL     OW17769   3.982   4.509   9.235
 4443SOL    HW117770   4.009   4.470   9.318
 4443SOL    HW217771   3.983   4.436   9.173
 4443SOL     MW17772   3.986   4.495   9.237
 4444SOL     OW17773   7.912   2.391   7.345
 4444SOL    HW117774   7.955   2.311   7.313
 4444SOL    HW217775   7.888   2.438   7.265
 4444SOL     MW17776   7.915   2.387   7.330
 4445SOL     OW17777   8.155   3.430   8.889
 4445SOL    HW117778   8.198   3.513   8.868
 4445SOL    HW217779   8.062   3.450   8.882
 4445SOL     MW17780   8.149   3.443   8.886
 4446SOL     OW17781   3.246   2.339   3.690
 4446SOL    HW117782   3.271   2.419   3.643
 4446SOL    HW217783   3.235   2.273   3.622
 4446SOL     MW17784   3.248   2.341   3.676
 4447SOL     OW17785   1.766   9.412   2.892
 4447SOL    HW117786   1.790   9.340   2.833
 4447SOL    HW217787   1.675   9.431   2.872
 4447SOL     MW17788   1.758   9.405   2.882
 4448SOL     OW17789   3.539   6.499   0.260
 4448SOL    HW117790   3.477   6.565   0.228
 4448SOL    HW217791   3.604   6.549   0.309
 4448SOL     MW17792   3.539   6.514   0.262
 4449SOL     OW17793   1.867   7.091   1.552
 4449SOL    HW117794   1.827   7.007   1.531
 4449SOL    HW217795   1.939   7.100   1.490
 4449SOL     MW17796   1.871   7.082   1.542
 4450SOL     OW17797   8.833   4.326   1.894
 4450SOL    HW117798   8.906   4.345   1.834
 4450SOL    HW217799   8.778   4.404   1.890
 4450SOL     MW17800   8.835   4.339   1.886
 4451SOL     OW17801   3.935   5.574   6.535
 4451SOL    HW117802   3.942   5.479   6.542
 4451SOL    HW217803   4.024   5.602   6.510
 4451SOL     MW17804   3.948   5.566   6.533
 4452SOL     OW17805   5.624   2.077   8.620
 4452SOL    HW117806   5.659   1.993   8.650
 4452SOL    HW217807   5.537   2.056   8.588
 4452SOL     MW17808   5.618   2.064   8.620
 4453SOL     OW17809   7.247   0.961   9.822
 4453SOL    HW117810   7.158   0.932   9.801
 4453SOL    HW217811   7.259   0.935   9.913
 4453SOL     MW17812   7.237   0.954   9.831
 4454SOL     OW17813   1.319   2.290   4.592
 4454SOL    HW117814   1.397   2.275   4.645
 4454SOL    HW217815   1.310   2.210   4.540
 4454SOL     MW17816   1.328   2.278   4.592
 4455SOL     OW17817   3.215   0.681   1.643
 4455SOL    HW117818   3.307   0.657   1.654
 4455SOL    HW217819   3.216   0.777   1.635
 4455SOL     MW17820   3.227   0.691   1.643
 4456SOL     OW17821   5.324   8.776   9.204
 4456SOL    HW117822   5.282   8.862   9.205
 4456SOL    HW217823   5.276   8.725   9.269
 4456SOL     MW17824   5.312   8.780   9.212
 4457SOL     OW17825   1.234   2.973   1.291
 4457SOL    HW117826   1.225   2.934   1.204
 4457SOL    HW217827   1.156   3.029   1.300
 4457SOL     MW17828   1.222   2.975   1.281
 4458SOL     OW17829   8.092   4.921   5.634
 4458SOL    HW117830   8.039   4.891   5.707
 4458SOL    HW217831   8.107   4.843   5.581
 4458SOL     MW17832   8.087   4.907   5.637
 4459SOL     OW17833   7.221   1.818   4.983
 4459SOL    HW117834   7.275   1.809   5.062
 4459SOL    HW217835   7.283   1.809   4.910
 4459SOL     MW17836   7.236   1.816   4.984
 4460SOL     OW17837   5.189   5.846   2.621
 4460SOL    HW117838   5.110   5.829   2.671
 4460SOL    HW217839   5.158   5.884   2.538
 4460SOL     MW17840   5.175   5.849   2.617
 4461SOL     OW17841   0.143   6.718   2.032
 4461SOL    HW117842   0.158   6.811   2.052
 4461SOL    HW217843   0.188   6.703   1.949
 4461SOL     MW17844   0.150   6.728   2.024
 4462SOL     OW17845   3.424   0.507   9.715
 4462SOL    HW117846   3.477   0.559   9.654
 4462SOL    HW217847   3.487   0.471   9.777
 4462SOL     MW17848   3.438   0.509   9.715
 4463SOL     OW17849   8.931   9.026   3.867
 4463SOL    HW117850   9.006   9.085   3.873
 4463SOL    HW217851   8.930   8.999   3.775
 4463SOL     MW17852   8.941   9.030   3.856
 4464SOL     OW17853   4.302   9.699   7.367
 4464SOL    HW117854   4.274   9.655   7.287
 4464SOL    HW217855   4.243   9.666   7.435
 4464SOL     MW17856   4.291   9.689   7.366
 4465SOL     OW17857   5.814   2.395   4.238
 4465SOL    HW117858   5.725   2.362   4.233
 4465SOL    HW217859   5.812   2.478   4.190
 4465SOL     MW17860   5.803   2.401   4.231
 4466SOL     OW17861   8.980   8.879   5.737
 4466SOL    HW117862   8.894   8.872   5.778
 4466SOL    HW217863   9.003   8.972   5.745
 4466SOL     MW17864   8.972   8.890   5.743
 4467SOL     OW17865   7.502   0.334   7.720
 4467SOL    HW117866   7.451   0.284   7.783
 4467SOL    HW217867   7.588   0.343   7.761
 4467SOL     MW17868   7.507   0.328   7.733
 4468SOL     OW17869   7.517   7.409   9.098
 4468SOL    HW117870   7.542   7.455   9.018
 4468SOL    HW217871   7.534   7.317   9.078
 4468SOL     MW17872   7.523   7.403   9.085
 4469SOL     OW17873   8.263   6.983   0.437
 4469SOL    HW117874   8.315   6.929   0.497
 4469SOL    HW217875   8.238   6.924   0.367
 4469SOL     MW17876   8.266   6.969   0.436
 4470SOL     OW17877   4.086   2.134   8.235
 4470SOL    HW117878   4.082   2.060   8.296
 4470SOL    HW217879   4.080   2.211   8.291
 4470SOL     MW17880   4.085   2.134   8.250
 4471SOL     OW17881   7.556   5.148   1.407
 4471SOL    HW117882   7.643   5.158   1.369
 4471SOL    HW217883   7.522   5.068   1.368
 4471SOL     MW17884   7.563   5.139   1.397
 4472SOL     OW17885   2.330   5.185   2.630
 4472SOL    HW117886   2.314   5.255   2.567
 4472SOL    HW217887   2.351   5.230   2.711
 4472SOL     MW17888   2.331   5.200   2.632
 4473SOL     OW17889   6.339   1.818   7.565
 4473SOL    HW117890   6.316   1.893   7.511
 4473SOL    HW217891   6.263   1.805   7.622
 4473SOL     MW17892   6.326   1.826   7.566
 4474SOL     OW17893   8.978   4.001   6.117
 4474SOL    HW117894   8.965   3.931   6.180
 4474SOL    HW217895   8.955   3.963   6.032
 4474SOL     MW17896   8.973   3.987   6.114
 4475SOL     OW17897   4.519   0.031   0.055
 4475SOL    HW117898   4.560   0.014  -0.029
 4475SOL    HW217899   4.490  -0.055   0.086
 4475SOL     MW17900   4.520   0.018   0.048
 4476SOL     OW17901   0.215   2.412   8.641
 4476SOL    HW117902   0.308   2.414   8.662
 4476SOL    HW217903   0.175   2.476   8.700
 4476SOL     MW17904   0.222   2.421   8.651
 4477SOL     OW17905   6.873   0.654   8.340
 4477SOL    HW117906   6.889   0.592   8.269
 4477SOL    HW217907   6.854   0.737   8.295
 4477SOL     MW17908   6.872   0.657   8.325
 4478SOL     OW17909   1.500   8.440   4.261
 4478SOL    HW117910   1.477   8.512   4.320
 4478SOL    HW217911   1.556   8.383   4.314
 4478SOL     MW17912   1.504   8.442   4.276
 4479SOL     OW17913   9.068   7.624   1.032
 4479SOL    HW117914   9.115   7.550   0.994
 4479SOL    HW217915   9.055   7.684   0.959
 4479SOL     MW17916   9.073   7.623   1.018
 4480SOL     OW17917   4.499   7.507   2.416
 4480SOL    HW117918   4.559   7.522   2.342
 4480SOL    HW217919   4.419   7.554   2.391
 4480SOL     MW17920   4.497   7.515   2.403
 4481SOL     OW17921   8.850   7.353   9.169
 4481SOL    HW117922   8.817   7.286   9.229
 4481SOL    HW217923   8.932   7.317   9.135
 4481SOL     MW17924   8.856   7.340   9.173
 4482SOL     OW17925   3.526   4.187   4.346
 4482SOL    HW117926   3.465   4.120   4.317
 4482SOL    HW217927   3.557   4.156   4.431
 4482SOL     MW17928   3.522   4.175   4.353
 4483SOL     OW17929   5.463   5.338   0.312
 4483SOL    HW117930   5.512   5.291   0.245
 4483SOL    HW217931   5.529   5.386   0.361
 4483SOL     MW17932   5.478   5.338   0.310
 4484SOL     OW17933   0.929  10.001   7.461
 4484SOL    HW117934   0.865   9.996   7.390
 4484SOL    HW217935   0.997  10.060   7.428
 4484SOL     MW17936   0.929  10.008   7.448
 4485SOL     OW17937   5.642   7.559   3.928
 4485SOL    HW117938   5.624   7.549   4.022
 4485SOL    HW217939   5.591   7.635   3.902
 4485SOL     MW17940   5.633   7.567   3.937
 4486SOL     OW17941   4.502   4.065   5.765
 4486SOL    HW117942   4.416   4.103   5.747
 4486SOL    HW217943   4.554   4.083   5.687
 4486SOL     MW17944   4.498   4.072   5.753
 4487SOL     OW17945   7.951   0.191   0.203
 4487SOL    HW117946   8.016   0.159   0.266
 4487SOL    HW217947   7.938   0.118   0.143
 4487SOL     MW17948   7.958   0.177   0.203
 4488SOL     OW17949   4.476   4.808   8.253
 4488SOL    HW117950   4.423   4.761   8.189
 4488SOL    HW217951   4.565   4.777   8.238
 4488SOL     MW17952   4.481   4.798   8.243
 4489SOL     OW17953   4.212   4.199   3.236
 4489SOL    HW117954   4.204   4.236   3.148
 4489SOL    HW217955   4.124   4.168   3.257
 4489SOL     MW17956   4.200   4.200   3.228
 4490SOL     OW17957   0.445   0.908   1.540
 4490SOL    HW117958   0.419   0.920   1.632
 4490SOL    HW217959   0.540   0.909   1.542
 4490SOL     MW17960   0.454   0.910   1.552
 4491SOL     OW17961   9.768   5.463   6.340
 4491SOL    HW117962   9.793   5.555   6.338
 4491SOL    HW217963   9.816   5.426   6.414
 4491SOL     MW17964   9.777   5.470   6.349
 4492SOL     OW17965   1.751   9.442   4.853
 4492SOL    HW117966   1.748   9.350   4.877
 4492SOL    HW217967   1.689   9.449   4.779
 4492SOL     MW17968   1.743   9.431   4.846
 4493SOL     OW17969   4.365   3.868   2.652
 4493SOL    HW117970   4.399   3.949   2.692
 4493SOL    HW217971   4.273   3.866   2.676
 4493SOL     MW17972   4.358   3.878   2.660
 4494SOL     OW17973   2.664   6.306   6.529
 4494SOL    HW117974   2.576   6.336   6.506
 4494SOL    HW217975   2.694   6.368   6.595
 4494SOL     MW17976   2.657   6.318   6.534
 4495SOL     OW17977   7.647   4.402   4.584
 4495SOL    HW117978   7.561   4.430   4.555
 4495SOL    HW217979   7.695   4.483   4.598
 4495SOL     MW17980   7.642   4.416   4.582
 4496SOL     OW17981   6.903   1.948   5.344
 4496SOL    HW117982   6.877   1.998   5.422
 4496SOL    HW217983   6.902   2.013   5.273
 4496SOL     MW17984   6.900   1.963   5.345
 4497SOL     OW17985   0.221   3.516   2.005
 4497SOL    HW117986   0.245   3.524   1.912
 4497SOL    HW217987   0.137   3.471   2.004
 4497SOL     MW17988   0.214   3.511   1.993
 4498SOL     OW17989   7.046   9.266   4.440
 4498SOL    HW117990   6.986   9.192   4.429
 4498SOL    HW217991   7.002   9.339   4.395
 4498SOL     MW17992   7.033   9.266   4.433
 4499SOL     OW17993   6.147   4.089   6.433
 4499SOL    HW117994   6.089   4.121   6.364
 4499SOL    HW217995   6.232   4.079   6.391
 4499SOL     MW17996   6.150   4.092   6.419
 4500SOL     OW17997   6.153   5.865   0.010
 4500SOL    HW117998   6.086   5.812   0.054
 4500SOL    HW217999   6.134   5.955   0.039
 4500SOL     MW18000   6.142   5.870   0.020
 4501SOL     OW18001   8.670   0.867   8.451
 4501SOL    HW118002   8.578   0.885   8.430
 4501SOL    HW218003   8.666   0.808   8.526
 4501SOL     MW18004   8.658   0.862   8.458
 4502SOL     OW18005   2.015   6.151   0.171
 4502SOL    HW118006   2.084   6.182   0.112
 4502SOL    HW218007   2.057   6.150   0.257
 4502SOL     MW18008   2.030   6.155   0.174
 4503SOL     OW18009   9.720   5.233   3.457
 4503SOL    HW118010   9.737   5.209   3.549
 4503SOL    HW218011   9.674   5.317   3.463
 4503SOL     MW18012   9.717   5.241   3.470
 4504SOL     OW18013   5.972   3.930   7.551
 4504SOL    HW118014   5.934   3.850   7.585
 4504SOL    HW218015   6.066   3.912   7.545
 4504SOL     MW18016   5.979   3.918   7.555
 4505SOL     OW18017   2.406   8.401   9.588
 4505SOL    HW118018   2.425   8.475   9.530
 4505SOL    HW218019   2.311   8.401   9.598
 4505SOL     MW18020   2.397   8.410   9.582
 4506SOL     OW18021   8.977   8.362   4.053
 4506SOL    HW118022   9.054   8.345   4.108
 4506SOL    HW218023   8.969   8.457   4.052
 4506SOL     MW18024   8.986   8.372   4.060
 4507SOL     OW18025   5.061   6.723   5.503
 4507SOL    HW118026   5.106   6.805   5.483
 4507SOL    HW218027   4.968   6.743   5.490
 4507SOL     MW18028   5.055   6.736   5.498
 4508SOL     OW18029   8.672   0.733   8.691
 4508SOL    HW118030   8.710   0.651   8.724
 4508SOL    HW218031   8.588   0.740   8.735
 4508SOL     MW18032   8.666   0.723   8.701
 4509SOL     OW18033   8.405   4.061   4.656
 4509SOL    HW118034   8.352   4.025   4.585
 4509SOL    HW218035   8.366   4.147   4.674
 4509SOL     MW18036   8.393   4.068   4.649
 4510SOL     OW18037   8.317   4.974   4.908
 4510SOL    HW118038   8.363   4.968   4.824
 4510SOL    HW218039   8.342   5.059   4.943
 4510SOL     MW18040   8.326   4.984   4.902
 4511SOL     OW18041   3.749   9.023   8.650
 4511SOL    HW118042   3.672   8.991   8.603
 4511SOL    HW218043   3.722   9.107   8.687
 4511SOL     MW18044   3.736   9.029   8.649
 4512SOL     OW18045   5.968   1.551   3.268
 4512SOL    HW118046   5.928   1.617   3.324
 4512SOL    HW218047   6.019   1.601   3.204
 4512SOL     MW18048   5.969   1.565   3.267
 4513SOL     OW18049   9.206   9.746   0.631
 4513SOL    HW118050   9.266   9.701   0.572
 4513SOL    HW218051   9.226   9.839   0.619
 4513SOL     MW18052   9.216   9.753   0.622
 4514SOL     OW18053   7.174   0.972   7.064
 4514SOL    HW118054   7.249   0.972   7.005
 4514SOL    HW218055   7.207   0.935   7.145
 4514SOL     MW18056   7.188   0.967   7.067
 4515SOL     OW18057   6.159   7.565   5.971
 4515SOL    HW118058   6.171   7.656   5.999
 4515SOL    HW218059   6.146   7.517   6.053
 4515SOL     MW18060   6.159   7.571   5.985
 4516SOL     OW18061   1.425   7.407   2.326
 4516SOL    HW118062   1.371   7.487   2.329
 4516SOL    HW218063   1.370   7.344   2.279
 4516SOL     MW18064   1.411   7.409   2.320
 4517SOL     OW18065   1.984   2.457   3.416
 4517SOL    HW118066   1.916   2.516   3.384
 4517SOL    HW218067   2.018   2.501   3.494
 4517SOL     MW18068   1.980   2.470   3.422
 4518SOL     OW18069   8.369  10.069   1.565
 4518SOL    HW118070   8.343  10.044   1.654
 4518SOL    HW218071   8.355  10.163   1.560
 4518SOL     MW18072   8.364  10.078   1.575
 4519SOL     OW18073   8.596   8.473   8.021
 4519SOL    HW118074   8.544   8.470   8.102
 4519SOL    HW218075   8.678   8.430   8.043
 4519SOL     MW18076   8.600   8.467   8.034
 4520SOL     OW18077   4.104   8.851   0.264
 4520SOL    HW118078   4.091   8.845   0.169
 4520SOL    HW218079   4.039   8.792   0.301
 4520SOL     MW18080   4.094   8.843   0.256
 4521SOL     OW18081   5.350   1.128   4.069
 4521SOL    HW118082   5.412   1.069   4.112
 4521SOL    HW218083   5.392   1.150   3.985
 4521SOL     MW18084   5.363   1.123   4.064
 4522SOL     OW18085   9.994   7.560   1.944
 4522SOL    HW118086   9.918   7.610   1.916
 4522SOL    HW218087  10.034   7.612   2.013
 4522SOL     MW18088   9.990   7.573   1.949
 4523SOL     OW18089   0.275   8.360   0.004
 4523SOL    HW118090   0.277   8.265  -0.011
 4523SOL    HW218091   0.311   8.370   0.092
 4523SOL     MW18092   0.280   8.349   0.013
 4524SOL     OW18093   1.689   1.349   7.814
 4524SOL    HW118094   1.594   1.343   7.825
 4524SOL    HW218095   1.723   1.362   7.903
 4524SOL     MW18096   1.681   1.350   7.827
 4525SOL     OW18097   5.848   7.319   9.276
 4525SOL    HW118098   5.883   7.344   9.361
 4525SOL    HW218099   5.783   7.387   9.256
 4525SOL     MW18100   5.844   7.331   9.284
 4526SOL     OW18101   9.891   7.493   4.883
 4526SOL    HW118102   9.913   7.578   4.923
 4526SOL    HW218103   9.798   7.500   4.861
 4526SOL     MW18104   9.882   7.505   4.885
 4527SOL     OW18105   3.718   7.560   7.865
 4527SOL    HW118106   3.720   7.648   7.829
 4527SOL    HW218107   3.805   7.524   7.847
 4527SOL     MW18108   3.729   7.566   7.858
 4528SOL     OW18109   3.507   9.387   3.164
 4528SOL    HW118110   3.491   9.293   3.151
 4528SOL    HW218111   3.419   9.425   3.175
 4528SOL     MW18112   3.494   9.380   3.164
 4529SOL     OW18113   1.577   7.117   0.149
 4529SOL    HW118114   1.535   7.190   0.196
 4529SOL    HW218115   1.544   7.125   0.059
 4529SOL     MW18116   1.567   7.127   0.143
 4530SOL     OW18117   4.262   4.566   2.203
 4530SOL    HW118118   4.319   4.531   2.135
 4530SOL    HW218119   4.313   4.557   2.284
 4530SOL     MW18120   4.276   4.560   2.205
 4531SOL     OW18121   6.537   8.120   6.542
 4531SOL    HW118122   6.552   8.123   6.447
 4531SOL    HW218123   6.623   8.139   6.580
 4531SOL     MW18124   6.550   8.123   6.534
 4532SOL     OW18125   9.239   0.139   3.651
 4532SOL    HW118126   9.280   0.065   3.607
 4532SOL    HW218127   9.145   0.121   3.645
 4532SOL     MW18128   9.232   0.127   3.645
 4533SOL     OW18129   9.468   3.492   6.569
 4533SOL    HW118130   9.379   3.502   6.602
 4533SOL    HW218131   9.501   3.414   6.614
 4533SOL     MW18132   9.461   3.483   6.579
 4534SOL     OW18133   9.370   3.098   1.285
 4534SOL    HW118134   9.429   3.030   1.318
 4534SOL    HW218135   9.289   3.051   1.266
 4534SOL     MW18136   9.367   3.083   1.287
 4535SOL     OW18137   6.820   6.224   4.621
 4535SOL    HW118138   6.819   6.147   4.678
 4535SOL    HW218139   6.866   6.195   4.542
 4535SOL     MW18140   6.826   6.210   4.618
 4536SOL     OW18141   2.819   3.036   2.651
 4536SOL    HW118142   2.853   3.003   2.734
 4536SOL    HW218143   2.800   2.957   2.600
 4536SOL     MW18144   2.821   3.022   2.655
 4537SOL     OW18145   5.302   4.485   6.344
 4537SOL    HW118146   5.230   4.439   6.387
 4537SOL    HW218147   5.339   4.541   6.413
 4537SOL     MW18148   5.298   4.486   6.359
 4538SOL     OW18149   6.994   1.550   9.800
 4538SOL    HW118150   6.991   1.457   9.777
 4538SOL    HW218151   7.086   1.574   9.791
 4538SOL     MW18152   7.005   1.541   9.796
 4539SOL     OW18153   3.822   7.377   3.547
 4539SOL    HW118154   3.797   7.414   3.631
 4539SOL    HW218155   3.863   7.449   3.500
 4539SOL     MW18156   3.824   7.391   3.552
 4540SOL     OW18157   8.843   0.884   3.468
 4540SOL    HW118158   8.831   0.978   3.451
 4540SOL    HW218159   8.928   0.863   3.432
 4540SOL     MW18160   8.852   0.893   3.462
 4541SOL     OW18161   8.516   5.484   4.234
 4541SOL    HW118162   8.462   5.407   4.216
 4541SOL    HW218163   8.457   5.558   4.221
 4541SOL     MW18164   8.501   5.484   4.230
 4542SOL     OW18165   6.135   5.223   3.538
 4542SOL    HW118166   6.046   5.255   3.556
 4542SOL    HW218167   6.151   5.250   3.447
 4542SOL     MW18168   6.125   5.231   3.528
 4543SOL     OW18169   2.335   3.345   7.664
 4543SOL    HW118170   2.401   3.400   7.706
 4543SOL    HW218171   2.252   3.390   7.679
 4543SOL     MW18172   2.333   3.358   7.671
 4544SOL     OW18173   2.981   4.207   0.906
 4544SOL    HW118174   2.928   4.143   0.955
 4544SOL    HW218175   2.921   4.278   0.887
 4544SOL     MW18176   2.967   4.208   0.910
 4545SOL     OW18177   9.779   3.686   5.970
 4545SOL    HW118178   9.714   3.624   5.937
 4545SOL    HW218179   9.736   3.772   5.963
 4545SOL     MW18180   9.765   3.689   5.965
 4546SOL     OW18181   1.740   8.791   5.641
 4546SOL    HW118182   1.830   8.790   5.607
 4546SOL    HW218183   1.746   8.843   5.721
 4546SOL     MW18184   1.752   8.798   5.647
 4547SOL     OW18185   7.442   1.138   9.742
 4547SOL    HW118186   7.520   1.082   9.738
 4547SOL    HW218187   7.371   1.079   9.763
 4547SOL     MW18188   7.443   1.123   9.744
 4548SOL     OW18189   4.051   0.055   8.428
 4548SOL    HW118190   4.054  -0.007   8.354
 4548SOL    HW218191   4.137   0.096   8.428
 4548SOL     MW18192   4.062   0.052   8.418
 4549SOL     OW18193   9.576   5.146   9.919
 4549SOL    HW118194   9.582   5.226   9.972
 4549SOL    HW218195   9.601   5.076   9.979
 4549SOL     MW18196   9.580   5.147   9.934
 4550SOL     OW18197   5.413   0.541   0.244
 4550SOL    HW118198   5.457   0.610   0.294
 4550SOL    HW218199   5.478   0.512   0.181
 4550SOL     MW18200   5.427   0.546   0.243
 4551SOL     OW18201   5.850   6.779   7.321
 4551SOL    HW118202   5.905   6.786   7.243
 4551SOL    HW218203   5.908   6.803   7.394
 4551SOL     MW18204   5.864   6.783   7.321
 4552SOL     OW18205   7.533   5.609   2.634
 4552SOL    HW118206   7.516   5.688   2.583
 4552SOL    HW218207   7.540   5.640   2.724
 4552SOL     MW18208   7.532   5.623   2.639
 4553SOL     OW18209  10.103   0.325   2.419
 4553SOL    HW118210  10.092   0.378   2.341
 4553SOL    HW218211  10.034   0.355   2.479
 4553SOL     MW18212  10.093   0.335   2.417
 4554SOL     OW18213   6.632   7.542   9.986
 4554SOL    HW118214   6.667   7.541   9.897
 4554SOL    HW218215   6.667   7.463  10.027
 4554SOL     MW18216   6.641   7.532   9.980
 4555SOL     OW18217   7.302   4.373   3.594
 4555SOL    HW118218   7.313   4.451   3.540
 4555SOL    HW218219   7.303   4.406   3.684
 4555SOL     MW18220   7.303   4.387   3.599
 4556SOL     OW18221   3.055   0.170   2.669
 4556SOL    HW118222   3.012   0.134   2.746
 4556SOL    HW218223   3.054   0.099   2.605
 4556SOL     MW18224   3.050   0.157   2.671
 4557SOL     OW18225   9.177   4.172   6.048
 4557SOL    HW118226   9.110   4.113   6.081
 4557SOL    HW218227   9.158   4.256   6.091
 4557SOL     MW18228   9.166   4.175   6.058
 4558SOL     OW18229   1.878   2.893   0.474
 4558SOL    HW118230   1.867   2.897   0.569
 4558SOL    HW218231   1.955   2.948   0.457
 4558SOL     MW18232   1.886   2.901   0.484
 4559SOL     OW18233   7.247   3.085   6.946
 4559SOL    HW118234   7.177   3.067   7.009
 4559SOL    HW218235   7.295   3.003   6.940
 4559SOL     MW18236   7.244   3.072   6.953
 4560SOL     OW18237   4.071   4.604   3.563
 4560SOL    HW118238   3.994   4.589   3.618
 4560SOL    HW218239   4.081   4.522   3.514
 4560SOL     MW18240   4.062   4.591   3.564
 4561SOL     OW18241   9.274   9.675   9.420
 4561SOL    HW118242   9.276   9.760   9.463
 4561SOL    HW218243   9.284   9.612   9.492
 4561SOL     MW18244   9.276   9.677   9.435
 4562SOL     OW18245   0.201   5.116   4.439
 4562SOL    HW118246   0.143   5.174   4.488
 4562SOL    HW218247   0.286   5.160   4.440
 4562SOL     MW18248   0.205   5.129   4.445
 4563SOL     OW18249   2.293   0.869   9.449
 4563SOL    HW118250   2.346   0.948   9.443
 4563SOL    HW218251   2.210   0.899   9.487
 4563SOL     MW18252   2.289   0.883   9.453
 4564SOL     OW18253   9.653   3.638  10.007
 4564SOL    HW118254   9.632   3.659   9.916
 4564SOL    HW218255   9.746   3.658  10.015
 4564SOL     MW18256   9.662   3.643   9.996
 4565SOL     OW18257   3.441   7.207   3.659
 4565SOL    HW118258   3.504   7.209   3.588
 4565SOL    HW218259   3.446   7.294   3.699
 4565SOL     MW18260   3.449   7.218   3.655
 4566SOL     OW18261   7.431   2.104   8.768
 4566SOL    HW118262   7.413   2.126   8.860
 4566SOL    HW218263   7.394   2.017   8.757
 4566SOL     MW18264   7.424   2.096   8.779
 4567SOL     OW18265   7.541   2.112   3.076
 4567SOL    HW118266   7.500   2.064   3.004
 4567SOL    HW218267   7.471   2.170   3.108
 4567SOL     MW18268   7.527   2.113   3.071
 4568SOL     OW18269  10.107   3.801   4.174
 4568SOL    HW118270  10.167   3.747   4.226
 4568SOL    HW218271  10.123   3.891   4.205
 4568SOL     MW18272  10.117   3.806   4.185
 4569SOL     OW18273   7.523   6.817   1.271
 4569SOL    HW118274   7.580   6.802   1.346
 4569SOL    HW218275   7.536   6.909   1.249
 4569SOL     MW18276   7.532   6.827   1.278
 4570SOL     OW18277   1.504   6.342   7.816
 4570SOL    HW118278   1.488   6.331   7.723
 4570SOL    HW218279   1.424   6.383   7.849
 4570SOL     MW18280   1.492   6.346   7.809
 4571SOL     OW18281   8.002   4.940   0.914
 4571SOL    HW118282   8.049   4.877   0.860
 4571SOL    HW218283   7.926   4.965   0.861
 4571SOL     MW18284   7.998   4.935   0.900
 4572SOL     OW18285   6.548   1.091   9.558
 4572SOL    HW118286   6.490   1.030   9.513
 4572SOL    HW218287   6.497   1.125   9.631
 4572SOL     MW18288   6.534   1.088   9.562
 4573SOL     OW18289   7.183   5.645   7.116
 4573SOL    HW118290   7.088   5.657   7.119
 4573SOL    HW218291   7.217   5.731   7.091
 4573SOL     MW18292   7.176   5.658   7.113
 4574SOL     OW18293   8.173   3.087   0.227
 4574SOL    HW118294   8.223   3.088   0.309
 4574SOL    HW218295   8.240   3.088   0.159
 4574SOL     MW18296   8.188   3.088   0.229
 4575SOL     OW18297   1.842   0.830   6.827
 4575SOL    HW118298   1.912   0.819   6.763
 4575SOL    HW218299   1.843   0.923   6.848
 4575SOL     MW18300   1.851   0.841   6.822
 4576SOL     OW18301   1.053   4.794   0.934
 4576SOL    HW118302   1.107   4.797   0.855
 4576SOL    HW218303   1.115   4.784   1.005
 4576SOL     MW18304   1.068   4.793   0.933
 4577SOL     OW18305   9.261   1.141   7.650
 4577SOL    HW118306   9.228   1.146   7.560
 4577SOL    HW218307   9.250   1.049   7.674
 4577SOL     MW18308   9.255   1.130   7.642
 4578SOL     OW18309   8.112   5.316   7.360
 4578SOL    HW118310   8.098   5.258   7.435
 4578SOL    HW218311   8.116   5.404   7.398
 4578SOL     MW18312   8.111   5.320   7.374
 4579SOL     OW18313   9.125   5.612   1.719
 4579SOL    HW118314   9.036   5.582   1.707
 4579SOL    HW218315   9.171   5.538   1.759
 4579SOL     MW18316   9.120   5.599   1.723
 4580SOL     OW18317   1.833   9.549   9.047
 4580SOL    HW118318   1.905   9.575   9.103
 4580SOL    HW218319   1.824   9.620   8.984
 4580SOL     MW18320   1.841   9.561   9.046
 4581SOL     OW18321   2.544   8.207   9.720
 4581SOL    HW118322   2.494   8.274   9.673
 4581SOL    HW218323   2.626   8.250   9.744
 4581SOL     MW18324   2.548   8.221   9.717
 4582SOL     OW18325   7.215   7.980   2.363
 4582SOL    HW118326   7.194   8.049   2.427
 4582SOL    HW218327   7.309   7.966   2.374
 4582SOL     MW18328   7.225   7.987   2.373
 4583SOL     OW18329   3.169   0.432   9.650
 4583SOL    HW118330   3.159   0.473   9.564
 4583SOL    HW218331   3.258   0.456   9.677
 4583SOL     MW18332   3.179   0.440   9.642
 4584SOL     OW18333   8.428   7.603   9.441
 4584SOL    HW118334   8.336   7.596   9.414
 4584SOL    HW218335   8.468   7.658   9.374
 4584SOL     MW18336   8.422   7.609   9.429
 4585SOL     OW18337   5.142   7.165   1.956
 4585SOL    HW118338   5.126   7.186   1.864
 4585SOL    HW218339   5.099   7.080   1.969
 4585SOL     MW18340   5.135   7.157   1.946
 4586SOL     OW18341   7.138   8.931   8.056
 4586SOL    HW118342   7.227   8.899   8.066
 4586SOL    HW218343   7.144   9.005   7.996
 4586SOL     MW18344   7.150   8.936   8.050
 4587SOL     OW18345   4.984   8.260   6.480
 4587SOL    HW118346   5.017   8.310   6.555
 4587SOL    HW218347   4.912   8.208   6.516
 4587SOL     MW18348   4.979   8.260   6.494
 4588SOL     OW18349   2.105   3.023   7.393
 4588SOL    HW118350   2.184   3.068   7.424
 4588SOL    HW218351   2.033   3.067   7.439
 4588SOL     MW18352   2.106   3.035   7.403
 4589SOL     OW18353   7.180   1.465   2.081
 4589SOL    HW118354   7.237   1.541   2.094
 4589SOL    HW218355   7.229   1.392   2.119
 4589SOL     MW18356   7.194   1.465   2.088
 4590SOL     OW18357   1.655   6.810   2.731
 4590SOL    HW118358   1.628   6.863   2.656
 4590SOL    HW218359   1.739   6.848   2.758
 4590SOL     MW18360   1.662   6.821   2.725
 4591SOL     OW18361   0.242   3.149   9.160
 4591SOL    HW118362   0.177   3.081   9.141
 4591SOL    HW218363   0.217   3.182   9.247
 4591SOL     MW18364   0.230   3.145   9.169
 4592SOL     OW18365   5.049   5.924   1.650
 4592SOL    HW118366   5.099   5.876   1.585
 4592SOL    HW218367   5.097   6.006   1.662
 4592SOL     MW18368   5.061   5.928   1.643
 4593SOL     OW18369   8.371   5.645   7.374
 4593SOL    HW118370   8.293   5.616   7.422
 4593SOL    HW218371   8.361   5.606   7.287
 4593SOL     MW18372   8.359   5.636   7.369
 4594SOL     OW18373   9.485   1.681   2.355
 4594SOL    HW118374   9.393   1.659   2.336
 4594SOL    HW218375   9.483   1.715   2.444
 4594SOL     MW18376   9.473   1.683   2.364
 4595SOL     OW18377   0.705   9.976   4.501
 4595SOL    HW118378   0.663  10.017   4.577
 4595SOL    HW218379   0.674   9.886   4.502
 4595SOL     MW18380   0.695   9.970   4.511
 4596SOL     OW18381   5.770   1.676   6.945
 4596SOL    HW118382   5.746   1.629   6.865
 4596SOL    HW218383   5.766   1.769   6.920
 4596SOL     MW18384   5.766   1.682   6.931
 4597SOL     OW18385   6.520  10.137   3.674
 4597SOL    HW118386   6.564  10.208   3.721
 4597SOL    HW218387   6.561  10.136   3.588
 4597SOL     MW18388   6.531  10.146   3.669
 4598SOL     OW18389   6.404   6.098   3.495
 4598SOL    HW118390   6.312   6.087   3.517
 4598SOL    HW218391   6.432   6.011   3.465
 4598SOL     MW18392   6.396   6.085   3.494
 4599SOL     OW18393   8.029   6.581   1.345
 4599SOL    HW118394   8.017   6.669   1.378
 4599SOL    HW218395   8.008   6.587   1.252
 4599SOL     MW18396   8.024   6.593   1.337
 4600SOL     OW18397   6.642   4.370   7.135
 4600SOL    HW118398   6.702   4.316   7.187
 4600SOL    HW218399   6.581   4.406   7.198
 4600SOL     MW18400   6.642   4.367   7.150
 4601SOL     OW18401   0.875   4.670   6.946
 4601SOL    HW118402   0.960   4.627   6.956
 4601SOL    HW218403   0.816   4.620   7.003
 4601SOL     MW18404   0.878   4.658   6.955
 4602SOL     OW18405   5.934  10.054   6.571
 4602SOL    HW118406   5.870  10.124   6.588
 4602SOL    HW218407   6.013  10.100   6.544
 4602SOL     MW18408   5.936  10.069   6.569
 4603SOL     OW18409   1.450   4.852   3.734
 4603SOL    HW118410   1.493   4.934   3.758
 4603SOL    HW218411   1.520   4.787   3.732
 4603SOL     MW18412   1.464   4.854   3.737
 4604SOL     OW18413   6.203   7.867   5.366
 4604SOL    HW118414   6.109   7.882   5.378
 4604SOL    HW218415   6.208   7.788   5.312
 4604SOL     MW18416   6.192   7.859   5.361
 4605SOL     OW18417   7.686   6.649   7.980
 4605SOL    HW118418   7.635   6.682   8.054
 4605SOL    HW218419   7.634   6.578   7.943
 4605SOL     MW18420   7.673   6.644   7.985
 4606SOL     OW18421   5.176   5.808   1.440
 4606SOL    HW118422   5.123   5.821   1.362
 4606SOL    HW218423   5.233   5.734   1.418
 4606SOL     MW18424   5.177   5.800   1.427
 4607SOL     OW18425   9.935   3.043   2.425
 4607SOL    HW118426   9.879   3.047   2.347
 4607SOL    HW218427   9.964   3.133   2.438
 4607SOL     MW18428   9.932   3.055   2.417
 4608SOL     OW18429   6.372   4.167   7.251
 4608SOL    HW118430   6.281   4.186   7.226
 4608SOL    HW218431   6.406   4.113   7.180
 4608SOL     MW18432   6.364   4.163   7.239
 4609SOL     OW18433   5.274   7.243   0.891
 4609SOL    HW118434   5.225   7.280   0.964
 4609SOL    HW218435   5.343   7.307   0.873
 4609SOL     MW18436   5.277   7.256   0.898
 4610SOL     OW18437   8.824   7.932   0.472
 4610SOL    HW118438   8.832   8.018   0.431
 4610SOL    HW218439   8.838   7.948   0.566
 4610SOL     MW18440   8.827   7.945   0.479
 4611SOL     OW18441   5.959   4.090   1.659
 4611SOL    HW118442   5.951   4.078   1.565
 4611SOL    HW218443   6.019   4.021   1.687
 4611SOL     MW18444   5.965   4.080   1.651
 4612SOL     OW18445   0.517  10.157   5.597
 4612SOL    HW118446   0.611  10.143   5.587
 4612SOL    HW218447   0.507  10.191   5.685
 4612SOL     MW18448   0.527  10.159   5.607
 4613SOL     OW18449   0.326   7.021   6.315
 4613SOL    HW118450   0.316   7.115   6.303
 4613SOL    HW218451   0.237   6.986   6.307
 4613SOL     MW18452   0.313   7.028   6.313
 4614SOL     OW18453   2.596   6.979   1.002
 4614SOL    HW118454   2.642   6.898   0.979
 4614SOL    HW218455   2.632   7.003   1.088
 4614SOL     MW18456   2.606   6.971   1.010
 4615SOL     OW18457   9.025   2.421   9.428
 4615SOL    HW118458   9.080   2.491   9.463
 4615SOL    HW218459   9.083   2.345   9.421
 4615SOL     MW18460   9.039   2.420   9.431
 4616SOL     OW18461   6.729   0.748   9.779
 4616SOL    HW118462   6.741   0.831   9.734
 4616SOL    HW218463   6.660   0.765   9.844
 4616SOL     MW18464   6.722   0.761   9.782
 4617SOL     OW18465   6.696   5.194   3.546
 4617SOL    HW118466   6.651   5.117   3.579
 4617SOL    HW218467   6.678   5.262   3.611
 4617SOL     MW18468   6.688   5.193   3.559
 4618SOL     OW18469   9.363   6.473   8.808
 4618SOL    HW118470   9.268   6.478   8.808
 4618SOL    HW218471   9.391   6.557   8.846
 4618SOL     MW18472   9.354   6.484   8.813
 4619SOL     OW18473   2.337   1.991   2.313
 4619SOL    HW118474   2.396   2.039   2.371
 4619SOL    HW218475   2.329   1.905   2.353
 4619SOL     MW18476   2.343   1.986   2.326
 4620SOL     OW18477   4.892   3.848   4.431
 4620SOL    HW118478   4.840   3.773   4.461
 4620SOL    HW218479   4.826   3.912   4.402
 4620SOL     MW18480   4.877   3.846   4.431
 4621SOL     OW18481   7.164   6.908   7.975
 4621SOL    HW118482   7.201   6.843   8.035
 4621SOL    HW218483   7.208   6.990   7.997
 4621SOL     MW18484   7.174   6.910   7.985
 4622SOL     OW18485   0.298   6.377   6.850
 4622SOL    HW118486   0.267   6.330   6.927
 4622SOL    HW218487   0.336   6.458   6.884
 4622SOL     MW18488   0.299   6.381   6.864
 4623SOL     OW18489   3.942   6.672   7.252
 4623SOL    HW118490   4.021   6.618   7.250
 4623SOL    HW218491   3.872   6.614   7.224
 4623SOL     MW18492   3.943   6.658   7.248
 4624SOL     OW18493   7.259   1.619   9.769
 4624SOL    HW118494   7.310   1.542   9.742
 4624SOL    HW218495   7.302   1.650   9.849
 4624SOL     MW18496   7.271   1.613   9.776
 4625SOL     OW18497   1.161   4.838   0.687
 4625SOL    HW118498   1.106   4.916   0.685
 4625SOL    HW218499   1.247   4.869   0.660
 4625SOL     MW18500   1.165   4.852   0.683
 4626SOL     OW18501   2.692   8.207   1.957
 4626SOL    HW118502   2.687   8.258   1.876
 4626SOL    HW218503   2.725   8.121   1.928
 4626SOL     MW18504   2.696   8.202   1.943
 4627SOL     OW18505   0.982   8.624   6.317
 4627SOL    HW118506   0.992   8.530   6.333
 4627SOL    HW218507   1.064   8.650   6.275
 4627SOL     MW18508   0.994   8.615   6.314
 4628SOL     OW18509   4.472   0.523   2.038
 4628SOL    HW118510   4.383   0.504   2.008
 4628SOL    HW218511   4.486   0.615   2.016
 4628SOL     MW18512   4.463   0.532   2.031
 4629SOL     OW18513   7.252   5.894   0.395
 4629SOL    HW118514   7.225   5.985   0.409
 4629SOL    HW218515   7.339   5.888   0.434
 4629SOL     MW18516   7.259   5.905   0.402
 4630SOL     OW18517   1.657   0.674   5.031
 4630SOL    HW118518   1.637   0.633   4.947
 4630SOL    HW218519   1.612   0.619   5.095
 4630SOL     MW18520   1.649   0.661   5.029
 4631SOL     OW18521   8.200   8.754   6.707
 4631SOL    HW118522   8.213   8.848   6.696
 4631SOL    HW218523   8.211   8.739   6.801
 4631SOL     MW18524   8.203   8.764   6.718
 4632SOL     OW18525   3.877   8.930   4.691
 4632SOL    HW118526   3.878   9.024   4.673
 4632SOL    HW218527   3.792   8.900   4.659
 4632SOL     MW18528   3.866   8.938   4.685
 4633SOL     OW18529   1.323   7.603   0.853
 4633SOL    HW118530   1.246   7.629   0.904
 4633SOL    HW218531   1.339   7.512   0.878
 4633SOL     MW18532   1.315   7.595   0.863
 4634SOL     OW18533   4.079   0.452   2.783
 4634SOL    HW118534   4.167   0.488   2.790
 4634SOL    HW218535   4.024   0.514   2.831
 4634SOL     MW18536   4.083   0.465   2.790
 4635SOL     OW18537   3.656   3.579   7.585
 4635SOL    HW118538   3.606   3.524   7.524
 4635SOL    HW218539   3.740   3.593   7.541
 4635SOL     MW18540   3.661   3.573   7.572
 4636SOL     OW18541  10.059   6.112   8.818
 4636SOL    HW118542  10.001   6.176   8.775
 4636SOL    HW218543  10.112   6.164   8.878
 4636SOL     MW18544  10.058   6.127   8.820
 4637SOL     OW18545   9.349   9.512   9.626
 4637SOL    HW118546   9.429   9.473   9.589
 4637SOL    HW218547   9.380   9.588   9.675
 4637SOL     MW18548   9.364   9.517   9.627
 4638SOL     OW18549   4.187   5.456   0.893
 4638SOL    HW118550   4.191   5.466   0.798
 4638SOL    HW218551   4.278   5.465   0.921
 4638SOL     MW18552   4.199   5.458   0.884
 4639SOL     OW18553   5.438   5.205   5.644
 4639SOL    HW118554   5.429   5.272   5.711
 4639SOL    HW218555   5.531   5.208   5.620
 4639SOL     MW18556   5.449   5.214   5.649
 4640SOL     OW18557   2.910   3.367   8.379
 4640SOL    HW118558   2.975   3.334   8.318
 4640SOL    HW218559   2.875   3.289   8.422
 4640SOL     MW18560   2.914   3.353   8.377
 4641SOL     OW18561   8.495   7.886   7.608
 4641SOL    HW118562   8.514   7.979   7.598
 4641SOL    HW218563   8.405   7.882   7.641
 4641SOL     MW18564   8.486   7.897   7.611
 4642SOL     OW18565   5.353   4.352   8.241
 4642SOL    HW118566   5.296   4.367   8.165
 4642SOL    HW218567   5.298   4.373   8.317
 4642SOL     MW18568   5.339   4.357   8.241
 4643SOL     OW18569   0.416   1.389   7.789
 4643SOL    HW118570   0.401   1.481   7.770
 4643SOL    HW218571   0.334   1.346   7.766
 4643SOL     MW18572   0.403   1.395   7.784
 4644SOL     OW18573   9.000   6.118   1.349
 4644SOL    HW118574   9.070   6.071   1.303
 4644SOL    HW218575   9.016   6.099   1.441
 4644SOL     MW18576   9.011   6.110   1.355
 4645SOL     OW18577   1.189   7.756   1.887
 4645SOL    HW118578   1.114   7.698   1.902
 4645SOL    HW218579   1.202   7.755   1.793
 4645SOL     MW18580   1.181   7.748   1.877
 4646SOL     OW18581   7.094   3.279   2.118
 4646SOL    HW118582   7.045   3.226   2.055
 4646SOL    HW218583   7.110   3.361   2.072
 4646SOL     MW18584   7.090   3.283   2.104
 4647SOL     OW18585   5.968   6.553   2.167
 4647SOL    HW118586   5.951   6.459   2.176
 4647SOL    HW218587   5.886   6.588   2.133
 4647SOL     MW18588   5.955   6.545   2.164
 4648SOL     OW18589   0.363   7.192   2.088
 4648SOL    HW118590   0.457   7.172   2.094
 4648SOL    HW218591   0.344   7.244   2.166
 4648SOL     MW18592   0.373   7.196   2.099
 4649SOL     OW18593   1.195   8.994   0.442
 4649SOL    HW118594   1.261   8.953   0.499
 4649SOL    HW218595   1.158   8.920   0.393
 4649SOL     MW18596   1.199   8.979   0.443
 4650SOL     OW18597   8.632   5.338   4.020
 4650SOL    HW118598   8.709   5.361   3.968
 4650SOL    HW218599   8.624   5.410   4.083
 4650SOL     MW18600   8.641   5.350   4.021
 4651SOL     OW18601   7.901   0.053   8.402
 4651SOL    HW118602   7.866   0.002   8.329
 4651SOL    HW218603   7.970   0.106   8.363
 4651SOL     MW18604   7.905   0.053   8.388
 4652SOL     OW18605   7.098   2.804   4.820
 4652SOL    HW118606   7.127   2.712   4.819
 4652SOL    HW218607   7.155   2.846   4.883
 4652SOL     MW18608   7.109   2.797   4.828
 4653SOL     OW18609   1.668   1.390   8.292
 4653SOL    HW118610   1.643   1.457   8.356
 4653SOL    HW218611   1.638   1.308   8.330
 4653SOL     MW18612   1.661   1.388   8.305
 4654SOL     OW18613   6.419   2.346   1.786
 4654SOL    HW118614   6.483   2.291   1.831
 4654SOL    HW218615   6.460   2.433   1.782
 4654SOL     MW18616   6.432   2.350   1.791
 4655SOL     OW18617   8.229   3.817   2.814
 4655SOL    HW118618   8.231   3.861   2.900
 4655SOL    HW218619   8.156   3.859   2.768
 4655SOL     MW18620   8.220   3.828   2.819
 4656SOL     OW18621   9.232   4.564   1.600
 4656SOL    HW118622   9.267   4.645   1.636
 4656SOL    HW218623   9.274   4.495   1.652
 4656SOL     MW18624   9.242   4.565   1.611
 4657SOL     OW18625   0.148   3.645   2.237
 4657SOL    HW118626   0.054   3.635   2.217
 4657SOL    HW218627   0.192   3.608   2.160
 4657SOL     MW18628   0.141   3.639   2.224
 4658SOL     OW18629   1.218   8.744   1.421
 4658SOL    HW118630   1.265   8.668   1.386
 4658SOL    HW218631   1.142   8.754   1.364
 4658SOL     MW18632   1.214   8.736   1.409
 4659SOL     OW18633   7.875   1.247   7.862
 4659SOL    HW118634   7.818   1.306   7.912
 4659SOL    HW218635   7.932   1.305   7.812
 4659SOL     MW18636   7.875   1.262   7.862
 4660SOL     OW18637   0.651   2.404   5.053
 4660SOL    HW118638   0.651   2.466   4.980
 4660SOL    HW218639   0.565   2.363   5.049
 4660SOL     MW18640   0.640   2.407   5.043
 4661SOL     OW18641   6.911   6.262   0.046
 4661SOL    HW118642   6.979   6.281   0.111
 4661SOL    HW218643   6.893   6.168   0.058
 4661SOL     MW18644   6.918   6.252   0.056
 4662SOL     OW18645   5.789   8.780   5.562
 4662SOL    HW118646   5.837   8.862   5.549
 4662SOL    HW218647   5.725   8.801   5.631
 4662SOL     MW18648   5.787   8.793   5.569
 4663SOL     OW18649   3.504   4.454   8.035
 4663SOL    HW118650   3.483   4.361   8.026
 4663SOL    HW218651   3.526   4.482   7.947
 4663SOL     MW18652   3.504   4.446   8.023
 4664SOL     OW18653   7.219   4.512   4.863
 4664SOL    HW118654   7.143   4.531   4.917
 4664SOL    HW218655   7.223   4.583   4.800
 4664SOL     MW18656   7.210   4.523   4.862
 4665SOL     OW18657   9.095   6.455   8.777
 4665SOL    HW118658   9.104   6.365   8.745
 4665SOL    HW218659   9.046   6.501   8.709
 4665SOL     MW18660   9.090   6.449   8.764
 4666SOL     OW18661   3.670   9.903   4.550
 4666SOL    HW118662   3.740   9.931   4.491
 4666SOL    HW218663   3.678   9.808   4.554
 4666SOL     MW18664   3.680   9.894   4.543
 4667SOL     OW18665   9.941   7.939   1.529
 4667SOL    HW118666   9.867   7.992   1.559
 4667SOL    HW218667  10.018   7.993   1.547
 4667SOL     MW18668   9.941   7.953   1.535
 4668SOL     OW18669   9.479   2.791   3.498
 4668SOL    HW118670   9.436   2.750   3.573
 4668SOL    HW218671   9.419   2.777   3.425
 4668SOL     MW18672   9.466   2.784   3.499
 4669SOL     OW18673   1.515   1.050   6.011
 4669SOL    HW118674   1.589   1.110   6.008
 4669SOL    HW218675   1.479   1.051   5.922
 4669SOL     MW18676   1.520   1.058   5.999
 4670SOL     OW18677   2.830   1.310   8.510
 4670SOL    HW118678   2.793   1.393   8.539
 4670SOL    HW218679   2.766   1.275   8.448
 4670SOL     MW18680   2.817   1.316   8.506
 4671SOL     OW18681   0.246   4.139   0.076
 4671SOL    HW118682   0.266   4.046   0.063
 4671SOL    HW218683   0.310   4.185   0.022
 4671SOL     MW18684   0.257   4.133   0.068
 4672SOL     OW18685   4.492   2.052   1.810
 4672SOL    HW118686   4.401   2.080   1.816
 4672SOL    HW218687   4.527   2.100   1.735
 4672SOL     MW18688   4.485   2.062   1.801
 4673SOL     OW18689   4.184   7.498   4.979
 4673SOL    HW118690   4.107   7.465   5.024
 4673SOL    HW218691   4.178   7.461   4.891
 4673SOL     MW18692   4.174   7.489   4.974
 4674SOL     OW18693   1.527   1.228   0.614
 4674SOL    HW118694   1.510   1.137   0.591
 4674SOL    HW218695   1.450   1.254   0.666
 4674SOL     MW18696   1.515   1.220   0.618
 4675SOL     OW18697   3.725   0.438   2.787
 4675SOL    HW118698   3.769   0.364   2.828
 4675SOL    HW218699   3.643   0.403   2.754
 4675SOL     MW18700   3.720   0.424   2.788
 4676SOL     OW18701   3.730   6.655   0.385
 4676SOL    HW118702   3.744   6.698   0.469
 4676SOL    HW218703   3.807   6.677   0.333
 4676SOL     MW18704   3.742   6.663   0.389
 4677SOL     OW18705   2.787   8.006   6.784
 4677SOL    HW118706   2.695   7.980   6.773
 4677SOL    HW218707   2.837   7.942   6.734
 4677SOL     MW18708   2.782   7.995   6.776
 4678SOL     OW18709   6.298   8.713   1.110
 4678SOL    HW118710   6.285   8.636   1.166
 4678SOL    HW218711   6.229   8.774   1.135
 4678SOL     MW18712   6.288   8.711   1.120
 4679SOL     OW18713  10.038   0.264   6.666
 4679SOL    HW118714  10.084   0.333   6.713
 4679SOL    HW218715  10.079   0.182   6.695
 4679SOL     MW18716  10.049   0.262   6.676
 4680SOL     OW18717   4.029   0.647   3.777
 4680SOL    HW118718   4.100   0.711   3.772
 4680SOL    HW218719   3.968   0.684   3.841
 4680SOL     MW18720   4.030   0.660   3.784
 4681SOL     OW18721   5.766   6.031   8.604
 4681SOL    HW118722   5.824   6.007   8.532
 4681SOL    HW218723   5.795   6.119   8.629
 4681SOL     MW18724   5.777   6.039   8.598
 4682SOL     OW18725   6.771   9.715   0.732
 4682SOL    HW118726   6.820   9.730   0.812
 4682SOL    HW218727   6.685   9.753   0.749
 4682SOL     MW18728   6.766   9.721   0.744
 4683SOL     OW18729   7.820   9.770   4.848
 4683SOL    HW118730   7.762   9.698   4.825
 4683SOL    HW218731   7.901   9.727   4.876
 4683SOL     MW18732   7.823   9.755   4.849
 4684SOL     OW18733   0.143   7.668   3.739
 4684SOL    HW118734   0.166   7.581   3.771
 4684SOL    HW218735   0.197   7.727   3.790
 4684SOL     MW18736   0.153   7.664   3.749
 4685SOL     OW18737   6.892   6.613   7.866
 4685SOL    HW118738   6.909   6.704   7.840
 4685SOL    HW218739   6.960   6.594   7.930
 4685SOL     MW18740   6.903   6.623   7.871
 4686SOL     OW18741   0.613   9.791   8.489
 4686SOL    HW118742   0.519   9.796   8.472
 4686SOL    HW218743   0.653   9.827   8.410
 4686SOL     MW18744   0.606   9.796   8.476
 4687SOL     OW18745   6.181   4.411   8.783
 4687SOL    HW118746   6.188   4.434   8.876
 4687SOL    HW218747   6.122   4.336   8.781
 4687SOL     MW18748   6.174   4.404   8.795
 4688SOL     OW18749   7.300   6.247   7.459
 4688SOL    HW118750   7.312   6.294   7.376
 4688SOL    HW218751   7.208   6.258   7.480
 4688SOL     MW18752   7.290   6.254   7.451
 4689SOL     OW18753   1.560   9.106   0.515
 4689SOL    HW118754   1.498   9.140   0.450
 4689SOL    HW218755   1.644   9.107   0.471
 4689SOL     MW18756   1.563   9.111   0.501
 4690SOL     OW18757   7.722   0.212   0.349
 4690SOL    HW118758   7.803   0.207   0.298
 4690SOL    HW218759   7.747   0.256   0.430
 4690SOL     MW18760   7.735   0.217   0.353
 4691SOL     OW18761   0.250   3.956   5.290
 4691SOL    HW118762   0.184   4.010   5.333
 4691SOL    HW218763   0.310   3.932   5.360
 4691SOL     MW18764   0.249   3.960   5.304
 4692SOL     OW18765   8.362   3.279   1.518
 4692SOL    HW118766   8.411   3.197   1.523
 4692SOL    HW218767   8.390   3.319   1.436
 4692SOL     MW18768   8.372   3.273   1.508
 4693SOL     OW18769   8.194   0.869   8.764
 4693SOL    HW118770   8.190   0.936   8.696
 4693SOL    HW218771   8.103   0.852   8.787
 4693SOL     MW18772   8.182   0.875   8.758
 4694SOL     OW18773  10.018   6.898   0.514
 4694SOL    HW118774  10.113   6.887   0.501
 4694SOL    HW218775  10.003   6.992   0.498
 4694SOL     MW18776  10.029   6.909   0.510
 4695SOL     OW18777   2.409   4.400   2.153
 4695SOL    HW118778   2.380   4.431   2.067
 4695SOL    HW218779   2.361   4.453   2.216
 4695SOL     MW18780   2.399   4.411   2.150
 4696SOL     OW18781   4.815   8.677   6.889
 4696SOL    HW118782   4.785   8.684   6.980
 4696SOL    HW218783   4.884   8.743   6.882
 4696SOL     MW18784   4.820   8.686   6.900
 4697SOL     OW18785   3.829   1.003   8.967
 4697SOL    HW118786   3.792   1.004   8.879
 4697SOL    HW218787   3.924   0.997   8.954
 4697SOL     MW18788   3.837   1.003   8.954
 4698SOL     OW18789   9.482   3.920   9.163
 4698SOL    HW118790   9.476   4.000   9.214
 4698SOL    HW218791   9.570   3.887   9.180
 4698SOL     MW18792   9.492   3.926   9.172
 4699SOL     OW18793   5.668   2.172   5.226
 4699SOL    HW118794   5.648   2.259   5.262
 4699SOL    HW218795   5.763   2.164   5.236
 4699SOL     MW18796   5.678   2.182   5.232
 4700SOL     OW18797   9.076   2.244   8.587
 4700SOL    HW118798   9.088   2.303   8.513
 4700SOL    HW218799   9.106   2.159   8.555
 4700SOL     MW18800   9.081   2.240   8.574
 4701SOL     OW18801   3.622   0.324   6.464
 4701SOL    HW118802   3.662   0.258   6.407
 4701SOL    HW218803   3.677   0.325   6.542
 4701SOL     MW18804   3.634   0.316   6.466
 4702SOL     OW18805   9.895   4.853   7.373
 4702SOL    HW118806   9.874   4.942   7.400
 4702SOL    HW218807   9.817   4.824   7.324
 4702SOL     MW18808   9.882   4.860   7.370
 4703SOL     OW18809   9.430   8.284   4.126
 4703SOL    HW118810   9.507   8.324   4.083
 4703SOL    HW218811   9.435   8.192   4.101
 4703SOL     MW18812   9.441   8.278   4.117
 4704SOL     OW18813   1.603   9.220   5.747
 4704SOL    HW118814   1.623   9.149   5.687
 4704SOL    HW218815   1.603   9.179   5.834
 4704SOL     MW18816   1.605   9.206   5.751
 4705SOL     OW18817   1.959   9.605   4.919
 4705SOL    HW118818   2.021   9.544   4.960
 4705SOL    HW218819   1.883   9.551   4.898
 4705SOL     MW18820   1.957   9.590   4.922
 4706SOL     OW18821   6.320   8.285   5.946
 4706SOL    HW118822   6.313   8.196   5.912
 4706SOL    HW218823   6.230   8.310   5.966
 4706SOL     MW18824   6.308   8.277   5.944
 4707SOL     OW18825   9.564   5.069   6.394
 4707SOL    HW118826   9.635   5.006   6.389
 4707SOL    HW218827   9.499   5.037   6.332
 4707SOL     MW18828   9.564   5.057   6.386
 4708SOL     OW18829   0.148   3.623   4.240
 4708SOL    HW118830   0.239   3.649   4.248
 4708SOL    HW218831   0.133   3.616   4.146
 4708SOL     MW18832   0.157   3.625   4.229
 4709SOL     OW18833   9.162   2.414   2.717
 4709SOL    HW118834   9.177   2.456   2.802
 4709SOL    HW218835   9.246   2.420   2.672
 4709SOL     MW18836   9.175   2.420   2.722
 4710SOL     OW18837   3.017   5.192   5.026
 4710SOL    HW118838   3.070   5.269   5.043
 4710SOL    HW218839   2.928   5.219   5.048
 4710SOL     MW18840   3.012   5.205   5.031
 4711SOL     OW18841   4.878   0.743   2.992
 4711SOL    HW118842   4.914   0.817   3.041
 4711SOL    HW218843   4.895   0.667   3.048
 4711SOL     MW18844   4.885   0.742   3.005
 4712SOL     OW18845   4.019   7.639   0.978
 4712SOL    HW118846   3.967   7.716   1.000
 4712SOL    HW218847   4.090   7.638   1.042
 4712SOL     MW18848   4.021   7.649   0.989
 4713SOL     OW18849   4.019   0.726   9.211
 4713SOL    HW118850   4.092   0.785   9.225
 4713SOL    HW218851   4.044   0.645   9.254
 4713SOL     MW18852   4.031   0.723   9.218
 4714SOL     OW18853   7.960   3.226   6.377
 4714SOL    HW118854   7.915   3.289   6.320
 4714SOL    HW218855   7.921   3.241   6.464
 4714SOL     MW18856   7.949   3.236   6.381
 4715SOL     OW18857   5.154   0.199   0.486
 4715SOL    HW118858   5.166   0.281   0.438
 4715SOL    HW218859   5.145   0.132   0.418
 4715SOL     MW18860   5.155   0.201   0.471
 4716SOL     OW18861   8.038   2.634   0.503
 4716SOL    HW118862   8.098   2.657   0.573
 4716SOL    HW218863   8.081   2.562   0.457
 4716SOL     MW18864   8.051   2.628   0.506
 4717SOL     OW18865   7.360   8.826   1.990
 4717SOL    HW118866   7.359   8.910   1.944
 4717SOL    HW218867   7.342   8.849   2.081
 4717SOL     MW18868   7.357   8.840   1.996
 4718SOL     OW18869   5.330   3.767   7.893
 4718SOL    HW118870   5.290   3.821   7.825
 4718SOL    HW218871   5.396   3.823   7.933
 4718SOL     MW18872   5.333   3.781   7.889
 4719SOL     OW18873   3.872   3.869   1.574
 4719SOL    HW118874   3.850   3.890   1.484
 4719SOL    HW218875   3.789   3.847   1.615
 4719SOL     MW18876   3.859   3.869   1.568
 4720SOL     OW18877   1.414   4.955   5.143
 4720SOL    HW118878   1.362   4.959   5.223
 4720SOL    HW218879   1.488   4.899   5.166
 4720SOL     MW18880   1.417   4.948   5.156
 4721SOL     OW18881   9.400   0.753   7.897
 4721SOL    HW118882   9.347   0.832   7.904
 4721SOL    HW218883   9.445   0.746   7.981
 4721SOL     MW18884   9.399   0.762   7.908
 4722SOL     OW18885   5.358   8.453   8.008
 4722SOL    HW118886   5.303   8.376   8.023
 4722SOL    HW218887   5.344   8.476   7.916
 4722SOL     MW18888   5.349   8.446   7.998
 4723SOL     OW18889   2.366   1.665   8.537
 4723SOL    HW118890   2.442   1.670   8.480
 4723SOL    HW218891   2.400   1.639   8.622
 4723SOL     MW18892   2.380   1.662   8.541
 4724SOL     OW18893   5.920   5.717   8.076
 4724SOL    HW118894   5.969   5.727   8.158
 4724SOL    HW218895   5.969   5.652   8.026
 4724SOL     MW18896   5.932   5.710   8.080
 4725SOL     OW18897   2.930   7.841   6.621
 4725SOL    HW118898   2.965   7.912   6.566
 4725SOL    HW218899   3.006   7.785   6.639
 4725SOL     MW18900   2.944   7.843   6.616
 4726SOL     OW18901   8.316   1.305   0.536
 4726SOL    HW118902   8.352   1.367   0.472
 4726SOL    HW218903   8.221   1.309   0.522
 4726SOL     MW18904   8.308   1.313   0.526
 4727SOL     OW18905   4.726   6.831   8.674
 4727SOL    HW118906   4.787   6.838   8.601
 4727SOL    HW218907   4.782   6.833   8.752
 4727SOL     MW18908   4.741   6.832   8.675
 4728SOL     OW18909   3.819   2.911   0.292
 4728SOL    HW118910   3.814   2.985   0.352
 4728SOL    HW218911   3.845   2.949   0.208
 4728SOL     MW18912   3.822   2.925   0.289
 4729SOL     OW18913   6.497   8.902   1.160
 4729SOL    HW118914   6.435   8.830   1.149
 4729SOL    HW218915   6.504   8.941   1.073
 4729SOL     MW18916   6.490   8.898   1.148
 4730SOL     OW18917   5.465   5.865   5.484
 4730SOL    HW118918   5.556   5.896   5.478
 4730SOL    HW218919   5.416   5.940   5.518
 4730SOL     MW18920   5.471   5.879   5.488
 4731SOL     OW18921   7.790   1.536   4.030
 4731SOL    HW118922   7.795   1.592   3.952
 4731SOL    HW218923   7.747   1.456   4.000
 4731SOL     MW18924   7.785   1.533   4.016
 4732SOL     OW18925   2.881   3.815   8.873
 4732SOL    HW118926   2.965   3.773   8.854
 4732SOL    HW218927   2.831   3.807   8.791
 4732SOL     MW18928   2.885   3.808   8.860
 4733SOL     OW18929   6.989   5.893   0.313
 4733SOL    HW118930   7.081   5.874   0.328
 4733SOL    HW218931   6.942   5.837   0.375
 4733SOL     MW18932   6.995   5.883   0.323
 4734SOL     OW18933   0.989   8.614   7.110
 4734SOL    HW118934   1.035   8.571   7.037
 4734SOL    HW218935   1.043   8.595   7.187
 4734SOL     MW18936   1.002   8.606   7.110
 4735SOL     OW18937   3.417   8.668   2.380
 4735SOL    HW118938   3.346   8.612   2.348
 4735SOL    HW218939   3.492   8.646   2.324
 4735SOL     MW18940   3.418   8.658   2.369
 4736SOL     OW18941   4.592   3.418   8.988
 4736SOL    HW118942   4.575   3.367   8.910
 4736SOL    HW218943   4.678   3.459   8.972
 4736SOL     MW18944   4.601   3.417   8.976
 4737SOL     OW18945   3.695   2.289   2.706
 4737SOL    HW118946   3.619   2.345   2.689
 4737SOL    HW218947   3.697   2.278   2.801
 4737SOL     MW18948   3.686   2.295   2.716
 4738SOL     OW18949   7.496   9.306   5.748
 4738SOL    HW118950   7.453   9.295   5.832
 4738SOL    HW218951   7.429   9.281   5.684
 4738SOL     MW18952   7.482   9.302   5.750
 4739SOL     OW18953   7.059   0.763   3.789
 4739SOL    HW118954   6.998   0.719   3.849
 4739SOL    HW218955   7.080   0.845   3.833
 4739SOL     MW18956   7.053   0.768   3.803
 4740SOL     OW18957   6.438   9.597   0.631
 4740SOL    HW118958   6.468   9.679   0.670
 4740SOL    HW218959   6.378   9.560   0.696
 4740SOL     MW18960   6.434   9.603   0.644
 4741SOL     OW18961   0.461   6.986   3.715
 4741SOL    HW118962   0.473   6.971   3.809
 4741SOL    HW218963   0.435   6.900   3.681
 4741SOL     MW18964   0.459   6.973   3.723
 4742SOL     OW18965   4.441   9.883   6.380
 4742SOL    HW118966   4.520   9.916   6.337
 4742SOL    HW218967   4.474   9.827   6.450
 4742SOL     MW18968   4.455   9.880   6.383
 4743SOL     OW18969   9.749   6.155   3.186
 4743SOL    HW118970   9.663   6.115   3.174
 4743SOL    HW218971   9.800   6.125   3.111
 4743SOL     MW18972   9.745   6.146   3.175
 4744SOL     OW18973   0.819   3.309   0.789
 4744SOL    HW118974   0.785   3.243   0.849
 4744SOL    HW218975   0.787   3.392   0.824
 4744SOL     MW18976   0.811   3.312   0.801
 4745SOL     OW18977   5.732   1.350   8.466
 4745SOL    HW118978   5.690   1.361   8.380
 4745SOL    HW218979   5.691   1.271   8.501
 4745SOL     MW18980   5.721   1.341   8.459
 4746SOL     OW18981   6.759   9.895   3.385
 4746SOL    HW118982   6.759   9.887   3.290
 4746SOL    HW218983   6.844   9.860   3.413
 4746SOL     MW18984   6.770   9.890   3.377
 4747SOL     OW18985   1.385   7.273   0.270
 4747SOL    HW118986   1.341   7.319   0.341
 4747SOL    HW218987   1.343   7.187   0.268
 4747SOL     MW18988   1.374   7.268   0.279
 4748SOL     OW18989   9.147   4.081   4.392
 4748SOL    HW118990   9.090   4.007   4.370
 4748SOL    HW218991   9.215   4.080   4.325
 4748SOL     MW18992   9.149   4.071   4.381
 4749SOL     OW18993   4.436   4.879   8.513
 4749SOL    HW118994   4.441   4.975   8.514
 4749SOL    HW218995   4.443   4.856   8.421
 4749SOL     MW18996   4.437   4.888   8.502
 4750SOL     OW18997   3.676   5.236   7.789
 4750SOL    HW118998   3.648   5.196   7.872
 4750SOL    HW218999   3.770   5.222   7.786
 4750SOL     MW19000   3.684   5.230   7.799
 4751SOL     OW19001   6.757   9.896   3.112
 4751SOL    HW119002   6.807   9.949   3.051
 4751SOL    HW219003   6.692   9.851   3.058
 4751SOL     MW19004   6.755   9.897   3.098
 4752SOL     OW19005   5.204   6.945   5.412
 4752SOL    HW119006   5.259   7.017   5.444
 4752SOL    HW219007   5.171   6.975   5.328
 4752SOL     MW19008   5.207   6.958   5.406
 4753SOL     OW19009   9.173   5.033   0.728
 4753SOL    HW119010   9.106   5.074   0.673
 4753SOL    HW219011   9.240   5.101   0.738
 4753SOL     MW19012   9.173   5.047   0.722
 4754SOL     OW19013   7.775   7.322   6.164
 4754SOL    HW119014   7.772   7.383   6.238
 4754SOL    HW219015   7.701   7.263   6.178
 4754SOL     MW19016   7.765   7.322   6.175
 4755SOL     OW19017   6.145   4.984   2.003
 4755SOL    HW119018   6.148   4.933   2.084
 4755SOL    HW219019   6.118   4.922   1.936
 4755SOL     MW19020   6.142   4.970   2.005
 4756SOL     OW19021   7.590   8.623   3.839
 4756SOL    HW119022   7.611   8.585   3.925
 4756SOL    HW219023   7.569   8.714   3.858
 4756SOL     MW19024   7.590   8.629   3.853
 4757SOL     OW19025   3.432   8.426  10.088
 4757SOL    HW119026   3.494   8.480  10.040
 4757SOL    HW219027   3.379   8.488  10.138
 4757SOL     MW19028   3.433   8.441  10.089
 4758SOL     OW19029   8.560   1.305   6.037
 4758SOL    HW119030   8.539   1.213   6.021
 4758SOL    HW219031   8.566   1.344   5.950
 4758SOL     MW19032   8.558   1.298   6.024
 4759SOL     OW19033   3.915   0.016   0.563
 4759SOL    HW119034   3.969   0.004   0.485
 4759SOL    HW219035   3.900   0.110   0.568
 4759SOL     MW19036   3.920   0.026   0.554
 4760SOL     OW19037   3.259   2.837   9.271
 4760SOL    HW119038   3.355   2.847   9.272
 4760SOL    HW219039   3.226   2.920   9.305
 4760SOL     MW19040   3.267   2.849   9.275
 4761SOL     OW19041   0.567   4.863   5.779
 4761SOL    HW119042   0.568   4.887   5.872
 4761SOL    HW219043   0.646   4.903   5.743
 4761SOL     MW19044   0.578   4.871   5.787
 4762SOL     OW19045   5.113   7.385   2.135
 4762SOL    HW119046   5.207   7.397   2.122
 4762SOL    HW219047   5.091   7.309   2.081
 4762SOL     MW19048   5.122   7.377   2.126
 4763SOL     OW19049   5.977   9.497   3.540
 4763SOL    HW119050   6.009   9.572   3.590
 4763SOL    HW219051   5.882   9.506   3.543
 4763SOL     MW19052   5.969   9.508   3.547
 4764SOL     OW19053   6.060   9.130   5.154
 4764SOL    HW119054   6.113   9.210   5.156
 4764SOL    HW219055   6.123   9.060   5.136
 4764SOL     MW19056   6.075   9.131   5.152
 4765SOL     OW19057   2.490   2.253   0.081
 4765SOL    HW119058   2.423   2.191   0.052
 4765SOL    HW219059   2.542   2.270   0.003
 4765SOL     MW19060   2.488   2.247   0.067
 4766SOL     OW19061   2.471   5.987   0.787
 4766SOL    HW119062   2.540   5.920   0.782
 4766SOL    HW219063   2.519   6.070   0.787
 4766SOL     MW19064   2.486   5.989   0.786
 4767SOL     OW19065   1.792   8.729   3.380
 4767SOL    HW119066   1.875   8.680   3.380
 4767SOL    HW219067   1.731   8.672   3.333
 4767SOL     MW19068   1.795   8.715   3.374
 4768SOL     OW19069   2.507   6.924   7.526
 4768SOL    HW119070   2.552   7.008   7.528
 4768SOL    HW219071   2.508   6.895   7.617
 4768SOL     MW19072   2.513   6.931   7.538
 4769SOL     OW19073   2.788   0.162   0.798
 4769SOL    HW119074   2.727   0.221   0.753
 4769SOL    HW219075   2.824   0.215   0.869
 4769SOL     MW19076   2.785   0.177   0.801
 4770SOL     OW19077   4.751   4.537   8.471
 4770SOL    HW119078   4.704   4.454   8.478
 4770SOL    HW219079   4.703   4.597   8.527
 4770SOL     MW19080   4.739   4.534   8.479
 4771SOL     OW19081   6.553   4.984   3.647
 4771SOL    HW119082   6.543   4.892   3.624
 4771SOL    HW219083   6.463   5.015   3.659
 4771SOL     MW19084   6.540   4.976   3.646
 4772SOL     OW19085   6.197   4.503   7.238
 4772SOL    HW119086   6.158   4.421   7.208
 4772SOL    HW219087   6.290   4.484   7.248
 4772SOL     MW19088   6.204   4.490   7.236
 4773SOL     OW19089   5.539   9.770   7.776
 4773SOL    HW119090   5.513   9.687   7.816
 4773SOL    HW219091   5.616   9.798   7.827
 4773SOL     MW19092   5.546   9.763   7.788
 4774SOL     OW19093   3.959   3.124   1.264
 4774SOL    HW119094   3.864   3.118   1.274
 4774SOL    HW219095   3.980   3.059   1.197
 4774SOL     MW19096   3.950   3.115   1.257
 4775SOL     OW19097   0.545   8.736   6.156
 4775SOL    HW119098   0.513   8.826   6.144
 4775SOL    HW219099   0.618   8.745   6.218
 4775SOL     MW19100   0.551   8.749   6.163
 4776SOL     OW19101   0.610   1.344   7.980
 4776SOL    HW119102   0.540   1.352   7.914
 4776SOL    HW219103   0.655   1.428   7.977
 4776SOL     MW19104   0.607   1.356   7.971
 4777SOL     OW19105   6.845   9.083   4.434
 4777SOL    HW119106   6.781   9.134   4.485
 4777SOL    HW219107   6.828   8.992   4.459
 4777SOL     MW19108   6.834   9.078   4.444
 4778SOL     OW19109   5.112   9.036   5.042
 4778SOL    HW119110   5.091   8.995   5.126
 4778SOL    HW219111   5.205   9.060   5.049
 4778SOL     MW19112   5.121   9.034   5.054
 4779SOL     OW19113   1.466   6.298   9.137
 4779SOL    HW119114   1.479   6.378   9.085
 4779SOL    HW219115   1.538   6.241   9.110
 4779SOL     MW19116   1.477   6.301   9.127
 4780SOL     OW19117   1.333   2.358   2.459
 4780SOL    HW119118   1.387   2.425   2.416
 4780SOL    HW219119   1.350   2.370   2.552
 4780SOL     MW19120   1.342   2.368   2.465
 4781SOL     OW19121   9.045   0.163   0.840
 4781SOL    HW119122   9.035   0.121   0.926
 4781SOL    HW219123   9.041   0.256   0.859
 4781SOL     MW19124   9.043   0.169   0.853
 4782SOL     OW19125   3.717   2.233   0.796
 4782SOL    HW119126   3.796   2.265   0.753
 4782SOL    HW219127   3.667   2.191   0.726
 4782SOL     MW19128   3.721   2.232   0.781
 4783SOL     OW19129   5.514   7.514   3.558
 4783SOL    HW119130   5.439   7.457   3.545
 4783SOL    HW219131   5.573   7.464   3.615
 4783SOL     MW19132   5.512   7.500   3.564
 4784SOL     OW19133   5.952   2.990   2.918
 4784SOL    HW119134   5.939   3.078   2.882
 4784SOL    HW219135   5.952   3.002   3.013
 4784SOL     MW19136   5.951   3.003   2.925
 4785SOL     OW19137   2.248   7.299   2.215
 4785SOL    HW119138   2.176   7.236   2.214
 4785SOL    HW219139   2.326   7.246   2.201
 4785SOL     MW19140   2.248   7.284   2.213
 4786SOL     OW19141   9.829   6.925   6.073
 4786SOL    HW119142   9.811   6.873   5.995
 4786SOL    HW219143   9.743   6.942   6.111
 4786SOL     MW19144   9.816   6.920   6.068
 4787SOL     OW19145   4.014   5.628   2.554
 4787SOL    HW119146   4.088   5.627   2.614
 4787SOL    HW219147   3.939   5.603   2.608
 4787SOL     MW19148   4.014   5.624   2.569
 4788SOL     OW19149   7.398   3.421   9.063
 4788SOL    HW119150   7.419   3.514   9.068
 4788SOL    HW219151   7.303   3.417   9.073
 4788SOL     MW19152   7.389   3.432   9.065
 4789SOL     OW19153   5.275   1.966   8.043
 4789SOL    HW119154   5.215   1.932   7.977
 4789SOL    HW219155   5.243   1.929   8.126
 4789SOL     MW19156   5.263   1.957   8.046
 4790SOL     OW19157   4.970   0.164   4.196
 4790SOL    HW119158   5.018   0.230   4.246
 4790SOL    HW219159   4.948   0.097   4.261
 4790SOL     MW19160   4.973   0.164   4.211
 4791SOL     OW19161   3.734   7.463   8.395
 4791SOL    HW119162   3.771   7.378   8.416
 4791SOL    HW219163   3.733   7.466   8.299
 4791SOL     MW19164   3.739   7.453   8.385
 4792SOL     OW19165   7.211   1.807   9.571
 4792SOL    HW119166   7.137   1.766   9.525
 4792SOL    HW219167   7.234   1.744   9.639
 4792SOL     MW19168   7.204   1.794   9.574
 4793SOL     OW19169   4.506   1.725   4.133
 4793SOL    HW119170   4.583   1.724   4.190
 4793SOL    HW219171   4.443   1.668   4.177
 4793SOL     MW19172   4.508   1.718   4.146
 4794SOL     OW19173   0.269   6.022   4.873
 4794SOL    HW119174   0.326   6.077   4.927
 4794SOL    HW219175   0.325   5.951   4.843
 4794SOL     MW19176   0.283   6.020   4.876
 4795SOL     OW19177   7.291   5.349   4.850
 4795SOL    HW119178   7.318   5.285   4.784
 4795SOL    HW219179   7.292   5.300   4.932
 4795SOL     MW19180   7.295   5.335   4.852
 4796SOL     OW19181   6.920   1.933   9.946
 4796SOL    HW119182   6.977   1.957   9.873
 4796SOL    HW219183   6.868   1.860   9.912
 4796SOL     MW19184   6.921   1.927   9.932
 4797SOL     OW19185   9.699   2.428   7.471
 4797SOL    HW119186   9.621   2.430   7.415
 4797SOL    HW219187   9.742   2.511   7.455
 4797SOL     MW19188   9.694   2.439   7.462
 4798SOL     OW19189   5.254   5.018   9.749
 4798SOL    HW119190   5.238   5.100   9.702
 4798SOL    HW219191   5.175   4.966   9.735
 4798SOL     MW19192   5.242   5.022   9.742
 4799SOL     OW19193   2.281   6.607   6.357
 4799SOL    HW119194   2.208   6.663   6.385
 4799SOL    HW219195   2.309   6.643   6.273
 4799SOL     MW19196   2.275   6.619   6.350
 4800SOL     OW19197   1.696   5.398   8.165
 4800SOL    HW119198   1.742   5.422   8.246
 4800SOL    HW219199   1.605   5.422   8.181
 4800SOL     MW19200   1.691   5.404   8.178
 4801SOL     OW19201   5.294   1.973   6.874
 4801SOL    HW119202   5.203   1.996   6.889
 4801SOL    HW219203   5.314   1.907   6.941
 4801SOL     MW19204   5.285   1.967   6.884
 4802SOL     OW19205   5.691   2.224   6.954
 4802SOL    HW119206   5.706   2.298   7.014
 4802SOL    HW219207   5.696   2.263   6.867
 4802SOL     MW19208   5.694   2.239   6.951
 4803SOL     OW19209   0.892   7.150   4.909
 4803SOL    HW119210   0.846   7.165   4.991
 4803SOL    HW219211   0.925   7.060   4.916
 4803SOL     MW19212   0.891   7.140   4.920
 4804SOL     OW19213   3.434   3.481   0.293
 4804SOL    HW119214   3.418   3.454   0.384
 4804SOL    HW219215   3.349   3.511   0.261
 4804SOL     MW19216   3.421   3.481   0.301
 4805SOL     OW19217   1.522   4.914   2.699
 4805SOL    HW119218   1.494   4.826   2.671
 4805SOL    HW219219   1.440   4.962   2.711
 4805SOL     MW19220   1.508   4.909   2.697
 4806SOL     OW19221   8.793   5.786   7.871
 4806SOL    HW119222   8.737   5.748   7.938
 4806SOL    HW219223   8.774   5.879   7.873
 4806SOL     MW19224   8.784   5.793   7.880
 4807SOL     OW19225   9.543   6.657   7.078
 4807SOL    HW119226   9.473   6.684   7.018
 4807SOL    HW219227   9.497   6.634   7.159
 4807SOL     MW19228   9.528   6.658   7.081
 4808SOL     OW19229   8.582   3.394   9.252
 4808SOL    HW119230   8.552   3.320   9.199
 4808SOL    HW219231   8.650   3.436   9.200
 4808SOL     MW19232   8.587   3.390   9.239
 4809SOL     OW19233   7.011   1.998   8.134
 4809SOL    HW119234   6.951   1.938   8.090
 4809SOL    HW219235   6.999   2.081   8.086
 4809SOL     MW19236   7.002   2.001   8.122
 4810SOL     OW19237   2.618   7.770   3.089
 4810SOL    HW119238   2.670   7.794   3.166
 4810SOL    HW219239   2.671   7.706   3.042
 4810SOL     MW19240   2.631   7.765   3.093
 4811SOL     OW19241   3.037   7.096   3.884
 4811SOL    HW119242   3.112   7.074   3.829
 4811SOL    HW219243   3.006   7.012   3.918
 4811SOL     MW19244   3.043   7.083   3.881
 4812SOL     OW19245   6.821   1.822   7.686
 4812SOL    HW119246   6.885   1.759   7.654
 4812SOL    HW219247   6.737   1.789   7.652
 4812SOL     MW19248   6.818   1.810   7.677
 4813SOL     OW19249   5.298   9.046   3.648
 4813SOL    HW119250   5.312   8.952   3.657
 4813SOL    HW219251   5.250   9.056   3.566
 4813SOL     MW19252   5.293   9.036   3.638
 4814SOL     OW19253   1.808   9.666   9.650
 4814SOL    HW119254   1.862   9.741   9.622
 4814SOL    HW219255   1.851   9.633   9.728
 4814SOL     MW19256   1.820   9.672   9.656
 4815SOL     OW19257   6.336   5.593   9.877
 4815SOL    HW119258   6.280   5.554   9.809
 4815SOL    HW219259   6.342   5.526   9.945
 4815SOL     MW19260   6.330   5.579   9.877
 4816SOL     OW19261   4.126   6.534   3.512
 4816SOL    HW119262   4.132   6.484   3.431
 4816SOL    HW219263   4.178   6.612   3.497
 4816SOL     MW19264   4.133   6.537   3.500
 4817SOL     OW19265   1.175   4.308   7.076
 4817SOL    HW119266   1.145   4.384   7.028
 4817SOL    HW219267   1.252   4.338   7.124
 4817SOL     MW19268   1.181   4.321   7.076
 4818SOL     OW19269   1.827   8.502   6.679
 4818SOL    HW119270   1.735   8.514   6.700
 4818SOL    HW219271   1.849   8.417   6.717
 4818SOL     MW19272   1.818   8.492   6.687
 4819SOL     OW19273   0.843   5.868   7.279
 4819SOL    HW119274   0.867   5.789   7.231
 4819SOL    HW219275   0.860   5.847   7.371
 4819SOL     MW19276   0.848   5.855   7.285
 4820SOL     OW19277   2.532   7.317   0.576
 4820SOL    HW119278   2.442   7.308   0.546
 4820SOL    HW219279   2.540   7.257   0.650
 4820SOL     MW19280   2.522   7.308   0.582
 4821SOL     OW19281   8.831   9.069   0.539
 4821SOL    HW119282   8.833   9.095   0.447
 4821SOL    HW219283   8.758   9.008   0.545
 4821SOL     MW19284   8.822   9.065   0.528
 4822SOL     OW19285   5.767   3.241   7.486
 4822SOL    HW119286   5.696   3.194   7.531
 4822SOL    HW219287   5.789   3.313   7.545
 4822SOL     MW19288   5.761   3.244   7.499
 4823SOL     OW19289   5.543   4.937   0.124
 4823SOL    HW119290   5.461   4.891   0.109
 4823SOL    HW219291   5.604   4.870   0.154
 4823SOL     MW19292   5.540   4.923   0.126
 4824SOL     OW19293   1.291   2.591   5.926
 4824SOL    HW119294   1.222   2.576   5.991
 4824SOL    HW219295   1.299   2.687   5.921
 4824SOL     MW19296   1.283   2.602   5.934
 4825SOL     OW19297   2.837   8.298   2.552
 4825SOL    HW119298   2.814   8.239   2.480
 4825SOL    HW219299   2.754   8.314   2.597
 4825SOL     MW19300   2.823   8.293   2.548
 4826SOL     OW19301   4.522   8.675   3.978
 4826SOL    HW119302   4.522   8.651   3.885
 4826SOL    HW219303   4.591   8.742   3.984
 4826SOL     MW19304   4.531   8.681   3.967
 4827SOL     OW19305   8.274   8.768   6.098
 4827SOL    HW119306   8.280   8.736   6.188
 4827SOL    HW219307   8.192   8.817   6.095
 4827SOL     MW19308   8.265   8.770   6.109
 4828SOL     OW19309   1.964   9.596   2.936
 4828SOL    HW119310   1.918   9.678   2.950
 4828SOL    HW219311   1.895   9.530   2.930
 4828SOL     MW19312   1.949   9.598   2.937
 4829SOL     OW19313   1.124   8.491   6.904
 4829SOL    HW119314   1.197   8.430   6.892
 4829SOL    HW219315   1.087   8.502   6.817
 4829SOL     MW19316   1.129   8.485   6.892
 4830SOL     OW19317   4.690   3.666   5.983
 4830SOL    HW119318   4.614   3.617   5.954
 4830SOL    HW219319   4.661   3.757   5.985
 4830SOL     MW19320   4.677   3.672   5.979
 4831SOL     OW19321   7.438   5.101   3.478
 4831SOL    HW119322   7.359   5.140   3.441
 4831SOL    HW219323   7.419   5.091   3.571
 4831SOL     MW19324   7.426   5.105   3.485
 4832SOL     OW19325   0.842   3.290   4.754
 4832SOL    HW119326   0.806   3.301   4.842
 4832SOL    HW219327   0.912   3.355   4.748
 4832SOL     MW19328   0.846   3.300   4.764
 4833SOL     OW19329   1.594   5.409   0.459
 4833SOL    HW119330   1.508   5.387   0.422
 4833SOL    HW219331   1.601   5.504   0.448
 4833SOL     MW19332   1.584   5.418   0.453
 4834SOL     OW19333   7.963   8.087   7.405
 4834SOL    HW119334   7.962   8.171   7.360
 4834SOL    HW219335   7.959   8.022   7.335
 4834SOL     MW19336   7.963   8.090   7.390
 4835SOL     OW19337   3.120   8.511   1.824
 4835SOL    HW119338   3.095   8.602   1.809
 4835SOL    HW219339   3.105   8.498   1.918
 4835SOL     MW19340   3.115   8.521   1.834
 4836SOL     OW19341   4.833   4.187   0.202
 4836SOL    HW119342   4.893   4.152   0.268
 4836SOL    HW219343   4.753   4.207   0.250
 4836SOL     MW19344   4.831   4.185   0.217
 4837SOL     OW19345   2.907   4.072   7.259
 4837SOL    HW119346   2.873   3.982   7.264
 4837SOL    HW219347   2.829   4.127   7.260
 4837SOL     MW19348   2.893   4.067   7.260
 4838SOL     OW19349   0.076   2.614   3.472
 4838SOL    HW119350   0.134   2.551   3.430
 4838SOL    HW219351   0.059   2.680   3.405
 4838SOL     MW19352   0.082   2.614   3.458
 4839SOL     OW19353   5.306   4.682   8.466
 4839SOL    HW119354   5.325   4.701   8.374
 4839SOL    HW219355   5.269   4.764   8.500
 4839SOL     MW19356   5.303   4.695   8.459
 4840SOL     OW19357   5.546   2.994   8.403
 4840SOL    HW119358   5.565   2.954   8.488
 4840SOL    HW219359   5.493   2.930   8.357
 4840SOL     MW19360   5.542   2.981   8.408
 4841SOL     OW19361   7.596   6.664   3.490
 4841SOL    HW119362   7.654   6.735   3.517
 4841SOL    HW219363   7.515   6.708   3.464
 4841SOL     MW19364   7.593   6.679   3.490
 4842SOL     OW19365   1.870   4.010  10.019
 4842SOL    HW119366   1.951   3.960  10.023
 4842SOL    HW219367   1.858   4.043  10.109
 4842SOL     MW19368   1.879   4.008  10.031
 4843SOL     OW19369   9.475   8.913   8.290
 4843SOL    HW119370   9.478   8.927   8.384
 4843SOL    HW219371   9.544   8.849   8.272
 4843SOL     MW19372   9.484   8.906   8.300
 4844SOL     OW19373   3.097   5.862   1.303
 4844SOL    HW119374   3.039   5.789   1.320
 4844SOL    HW219375   3.121   5.895   1.389
 4844SOL     MW19376   3.093   5.857   1.316
 4845SOL     OW19377   5.016   3.731   4.735
 4845SOL    HW119378   5.070   3.728   4.656
 4845SOL    HW219379   5.015   3.824   4.759
 4845SOL     MW19380   5.023   3.743   4.728
 4846SOL     OW19381   3.112   8.622   1.079
 4846SOL    HW119382   3.203   8.590   1.078
 4846SOL    HW219383   3.084   8.612   1.169
 4846SOL     MW19384   3.120   8.617   1.090
 4847SOL     OW19385   8.135   9.938   4.928
 4847SOL    HW119386   8.155  10.008   4.991
 4847SOL    HW219387   8.066   9.975   4.873
 4847SOL     MW19388   8.129   9.952   4.929
 4848SOL     OW19389   0.560   4.839   0.873
 4848SOL    HW119390   0.624   4.852   0.803
 4848SOL    HW219391   0.588   4.759   0.917
 4848SOL     MW19392   0.572   4.830   0.870
 4849SOL     OW19393   3.867   6.529   3.606
 4849SOL    HW119394   3.867   6.489   3.693
 4849SOL    HW219395   3.959   6.534   3.581
 4849SOL     MW19396   3.879   6.525   3.614
 4850SOL     OW19397   6.311   3.128   5.606
 4850SOL    HW119398   6.301   3.222   5.593
 4850SOL    HW219399   6.298   3.090   5.519
 4850SOL     MW19400   6.308   3.135   5.594
 4851SOL     OW19401   4.705   6.181   8.718
 4851SOL    HW119402   4.767   6.110   8.706
 4851SOL    HW219403   4.755   6.260   8.699
 4851SOL     MW19404   4.719   6.182   8.714
 4852SOL     OW19405   5.504   3.490   1.939
 4852SOL    HW119406   5.592   3.473   1.972
 4852SOL    HW219407   5.466   3.550   2.002
 4852SOL     MW19408   5.510   3.496   1.951
 4853SOL     OW19409   4.608   4.531   1.820
 4853SOL    HW119410   4.549   4.588   1.770
 4853SOL    HW219411   4.670   4.592   1.862
 4853SOL     MW19412   4.609   4.546   1.819
 4854SOL     OW19413   2.312   0.898   0.277
 4854SOL    HW119414   2.301   0.981   0.230
 4854SOL    HW219415   2.393   0.861   0.241
 4854SOL     MW19416   2.321   0.904   0.266
 4855SOL     OW19417   7.361   4.893   4.628
 4855SOL    HW119418   7.449   4.878   4.594
 4855SOL    HW219419   7.357   4.987   4.645
 4855SOL     MW19420   7.372   4.903   4.626
 4856SOL     OW19421   0.221   8.733   3.719
 4856SOL    HW119422   0.246   8.691   3.801
 4856SOL    HW219423   0.218   8.661   3.655
 4856SOL     MW19424   0.224   8.718   3.721
 4857SOL     OW19425   7.237   0.079   3.969
 4857SOL    HW119426   7.291   0.055   3.894
 4857SOL    HW219427   7.296   0.128   4.027
 4857SOL     MW19428   7.251   0.082   3.967
 4858SOL     OW19429   6.484   3.523   2.663
 4858SOL    HW119430   6.539   3.510   2.740
 4858SOL    HW219431   6.510   3.453   2.603
 4858SOL     MW19432   6.494   3.512   2.665
 4859SOL     OW19433   6.220   9.300   7.879
 4859SOL    HW119434   6.281   9.233   7.848
 4859SOL    HW219435   6.140   9.284   7.829
 4859SOL     MW19436   6.217   9.289   7.869
 4860SOL     OW19437   0.222   5.802   8.139
 4860SOL    HW119438   0.315   5.780   8.146
 4860SOL    HW219439   0.194   5.815   8.229
 4860SOL     MW19440   0.231   5.801   8.151
 4861SOL     OW19441   5.175   0.419   4.379
 4861SOL    HW119442   5.152   0.507   4.408
 4861SOL    HW219443   5.263   0.404   4.414
 4861SOL     MW19444   5.184   0.429   4.387
 4862SOL     OW19445   3.586   5.702   5.710
 4862SOL    HW119446   3.512   5.748   5.750
 4862SOL    HW219447   3.571   5.609   5.731
 4862SOL     MW19448   3.575   5.696   5.718
 4863SOL     OW19449   5.443   1.365   5.883
 4863SOL    HW119450   5.486   1.284   5.907
 4863SOL    HW219451   5.349   1.345   5.888
 4863SOL     MW19452   5.436   1.352   5.887
 4864SOL     OW19453   3.279   7.133   9.832
 4864SOL    HW119454   3.195   7.169   9.863
 4864SOL    HW219455   3.314   7.201   9.775
 4864SOL     MW19456   3.273   7.147   9.829
 4865SOL     OW19457   6.194   7.932   5.633
 4865SOL    HW119458   6.163   7.848   5.669
 4865SOL    HW219459   6.223   7.910   5.544
 4865SOL     MW19460   6.194   7.918   5.626
 4866SOL     OW19461   5.001   1.276   5.222
 4866SOL    HW119462   5.025   1.311   5.136
 4866SOL    HW219463   4.911   1.244   5.210
 4866SOL     MW19464   4.992   1.276   5.209
 4867SOL     OW19465   2.357   8.623   9.427
 4867SOL    HW119466   2.349   8.665   9.341
 4867SOL    HW219467   2.269   8.592   9.447
 4867SOL     MW19468   2.345   8.624   9.419
 4868SOL     OW19469   1.829   9.209   2.720
 4868SOL    HW119470   1.906   9.236   2.671
 4868SOL    HW219471   1.849   9.121   2.751
 4868SOL     MW19472   1.841   9.202   2.718
 4869SOL     OW19473   2.310   9.321   6.943
 4869SOL    HW119474   2.223   9.338   6.981
 4869SOL    HW219475   2.293   9.300   6.852
 4869SOL     MW19476   2.297   9.321   6.936
 4870SOL     OW19477   0.363   9.380   8.171
 4870SOL    HW119478   0.357   9.420   8.258
 4870SOL    HW219479   0.453   9.350   8.165
 4870SOL     MW19480   0.374   9.381   8.181
 4871SOL     OW19481   1.925   4.182   8.326
 4871SOL    HW119482   1.881   4.171   8.410
 4871SOL    HW219483   1.990   4.251   8.341
 4871SOL     MW19484   1.927   4.190   8.339
 4872SOL     OW19485   9.144   5.249   5.125
 4872SOL    HW119486   9.128   5.292   5.041
 4872SOL    HW219487   9.239   5.236   5.127
 4872SOL     MW19488   9.154   5.253   5.115
 4873SOL     OW19489   0.507   1.797   3.312
 4873SOL    HW119490   0.489   1.889   3.297
 4873SOL    HW219491   0.511   1.788   3.407
 4873SOL     MW19492   0.505   1.807   3.322
 4874SOL     OW19493   6.209   2.493   5.875
 4874SOL    HW119494   6.302   2.495   5.856
 4874SOL    HW219495   6.180   2.584   5.863
 4874SOL     MW19496   6.217   2.505   5.871
 4875SOL     OW19497  10.022   2.453   3.499
 4875SOL    HW119498  10.090   2.519   3.488
 4875SOL    HW219499   9.981   2.445   3.413
 4875SOL     MW19500  10.025   2.460   3.487
 4876SOL     OW19501   3.849   8.894  10.011
 4876SOL    HW119502   3.925   8.872  10.065
 4876SOL    HW219503   3.774   8.874  10.067
 4876SOL     MW19504   3.849   8.889  10.025
 4877SOL     OW19505   2.226   4.361   0.241
 4877SOL    HW119506   2.211   4.280   0.290
 4877SOL    HW219507   2.321   4.365   0.228
 4877SOL     MW19508   2.236   4.351   0.246
 4878SOL     OW19509   1.014   3.495   3.196
 4878SOL    HW119510   1.106   3.473   3.185
 4878SOL    HW219511   1.004   3.513   3.290
 4878SOL     MW19512   1.025   3.495   3.207
 4879SOL     OW19513   1.761   9.418   7.921
 4879SOL    HW119514   1.710   9.496   7.944
 4879SOL    HW219515   1.695   9.355   7.892
 4879SOL     MW19516   1.746   9.420   7.921
 4880SOL     OW19517   8.157   4.550   6.437
 4880SOL    HW119518   8.065   4.527   6.451
 4880SOL    HW219519   8.196   4.473   6.397
 4880SOL     MW19520   8.150   4.537   6.434
 4881SOL     OW19521   3.084   3.826   8.521
 4881SOL    HW119522   3.072   3.732   8.511
 4881SOL    HW219523   3.150   3.849   8.456
 4881SOL     MW19524   3.091   3.817   8.511
 4882SOL     OW19525   2.880   1.325   6.416
 4882SOL    HW119526   2.814   1.306   6.482
 4882SOL    HW219527   2.918   1.240   6.394
 4882SOL     MW19528   2.877   1.312   6.421
 4883SOL     OW19529   8.252   7.869   7.745
 4883SOL    HW119530   8.172   7.883   7.694
 4883SOL    HW219531   8.263   7.950   7.796
 4883SOL     MW19532   8.243   7.881   7.745
 4884SOL     OW19533   5.897   4.559   2.527
 4884SOL    HW119534   5.897   4.481   2.472
 4884SOL    HW219535   5.898   4.525   2.617
 4884SOL     MW19536   5.897   4.545   2.532
 4885SOL     OW19537   6.274   7.563   0.934
 4885SOL    HW119538   6.304   7.477   0.903
 4885SOL    HW219539   6.285   7.621   0.859
 4885SOL     MW19540   6.279   7.559   0.921
 4886SOL     OW19541   8.522   8.162   7.597
 4886SOL    HW119542   8.485   8.211   7.670
 4886SOL    HW219543   8.554   8.229   7.537
 4886SOL     MW19544   8.522   8.177   7.599
 4887SOL     OW19545   9.125   9.353   5.614
 4887SOL    HW119546   9.174   9.349   5.532
 4887SOL    HW219547   9.112   9.446   5.630
 4887SOL     MW19548   9.130   9.364   5.606
 4888SOL     OW19549   3.922   1.195   0.863
 4888SOL    HW119550   3.952   1.212   0.774
 4888SOL    HW219551   3.865   1.118   0.855
 4888SOL     MW19552   3.919   1.187   0.851
 4889SOL     OW19553   5.614   9.942   2.444
 4889SOL    HW119554   5.555  10.004   2.401
 4889SOL    HW219555   5.618   9.867   2.385
 4889SOL     MW19556   5.607   9.940   2.431
 4890SOL     OW19557   7.953   8.919   8.946
 4890SOL    HW119558   7.952   8.823   8.939
 4890SOL    HW219559   7.885   8.948   8.885
 4890SOL     MW19560   7.944   8.910   8.937
 4891SOL     OW19561   9.396   8.318   5.962
 4891SOL    HW119562   9.465   8.282   5.906
 4891SOL    HW219563   9.326   8.341   5.902
 4891SOL     MW19564   9.396   8.316   5.947
 4892SOL     OW19565   4.089   8.798   0.610
 4892SOL    HW119566   4.115   8.788   0.702
 4892SOL    HW219567   4.172   8.793   0.561
 4892SOL     MW19568   4.103   8.796   0.616
 4893SOL     OW19569   4.341   8.122   3.077
 4893SOL    HW119570   4.274   8.127   3.009
 4893SOL    HW219571   4.334   8.205   3.124
 4893SOL     MW19572   4.331   8.133   3.074
 4894SOL     OW19573   7.958   5.557   0.094
 4894SOL    HW119574   7.973   5.482   0.151
 4894SOL    HW219575   7.932   5.519   0.010
 4894SOL     MW19576   7.956   5.543   0.091
 4895SOL     OW19577   7.828   2.773   0.393
 4895SOL    HW119578   7.898   2.724   0.437
 4895SOL    HW219579   7.874   2.838   0.340
 4895SOL     MW19580   7.843   2.775   0.392
 4896SOL     OW19581   7.284   1.874   8.738
 4896SOL    HW119582   7.256   1.804   8.796
 4896SOL    HW219583   7.203   1.917   8.710
 4896SOL     MW19584   7.270   1.871   8.742
 4897SOL     OW19585   3.682   3.574   5.530
 4897SOL    HW119586   3.651   3.531   5.450
 4897SOL    HW219587   3.720   3.656   5.499
 4897SOL     MW19588   3.683   3.579   5.516
 4898SOL     OW19589   3.981   5.415   1.073
 4898SOL    HW119590   4.057   5.417   1.015
 4898SOL    HW219591   3.918   5.359   1.029
 4898SOL     MW19592   3.983   5.408   1.060
 4899SOL     OW19593   9.943   0.335   3.539
 4899SOL    HW119594   9.991   0.295   3.612
 4899SOL    HW219595  10.009   0.346   3.471
 4899SOL     MW19596   9.958   0.331   3.540
 4900SOL     OW19597   1.059   1.455   3.438
 4900SOL    HW119598   1.054   1.360   3.426
 4900SOL    HW219599   1.019   1.492   3.360
 4900SOL     MW19600   1.053   1.447   3.426
 4901SOL     OW19601   2.828   3.811   7.254
 4901SOL    HW119602   2.817   3.741   7.318
 4901SOL    HW219603   2.897   3.780   7.196
 4901SOL     MW19604   2.835   3.798   7.255
 4902SOL     OW19605   6.552   1.183   0.032
 4902SOL    HW119606   6.543   1.279   0.035
 4902SOL    HW219607   6.612   1.163   0.103
 4902SOL     MW19608   6.559   1.193   0.041
 4903SOL     OW19609   9.515   6.117   1.558
 4903SOL    HW119610   9.538   6.132   1.650
 4903SOL    HW219611   9.444   6.179   1.542
 4903SOL     MW19612   9.509   6.127   1.568
 4904SOL     OW19613   5.838   8.504   7.628
 4904SOL    HW119614   5.927   8.473   7.609
 4904SOL    HW219615   5.784   8.465   7.559
 4904SOL     MW19616   5.843   8.495   7.617
 4905SOL     OW19617   0.516   0.508   2.726
 4905SOL    HW119618   0.562   0.433   2.688
 4905SOL    HW219619   0.430   0.508   2.683
 4905SOL     MW19620   0.511   0.498   2.716
 4906SOL     OW19621   8.725   9.109   4.043
 4906SOL    HW119622   8.760   9.043   4.102
 4906SOL    HW219623   8.776   9.099   3.963
 4906SOL     MW19624   8.736   9.099   4.040
 4907SOL     OW19625   3.328   9.736   4.723
 4907SOL    HW119626   3.297   9.686   4.798
 4907SOL    HW219627   3.251   9.743   4.666
 4907SOL     MW19628   3.314   9.731   4.725
 4908SOL     OW19629   3.427   5.333   7.293
 4908SOL    HW119630   3.490   5.333   7.365
 4908SOL    HW219631   3.447   5.253   7.244
 4908SOL     MW19632   3.438   5.323   7.296
 4909SOL     OW19633   3.386   3.791   4.740
 4909SOL    HW119634   3.311   3.732   4.743
 4909SOL    HW219635   3.415   3.799   4.831
 4909SOL     MW19636   3.380   3.785   4.752
 4910SOL     OW19637   8.439   0.709   3.727
 4910SOL    HW119638   8.440   0.783   3.789
 4910SOL    HW219639   8.526   0.709   3.688
 4910SOL     MW19640   8.450   0.718   3.730
 4911SOL     OW19641   2.877   1.176   8.746
 4911SOL    HW119642   2.859   1.218   8.662
 4911SOL    HW219643   2.960   1.214   8.775
 4911SOL     MW19644   2.885   1.186   8.739
 4912SOL     OW19645   5.766   1.950   2.637
 4912SOL    HW119646   5.733   1.939   2.726
 4912SOL    HW219647   5.821   2.029   2.641
 4912SOL     MW19648   5.769   1.959   2.649
 4913SOL     OW19649   5.741   3.976   6.001
 4913SOL    HW119650   5.682   4.051   5.996
 4913SOL    HW219651   5.731   3.943   6.090
 4913SOL     MW19652   5.732   3.981   6.012
 4914SOL     OW19653   7.717   4.822   0.589
 4914SOL    HW119654   7.717   4.844   0.496
 4914SOL    HW219655   7.710   4.726   0.591
 4914SOL     MW19656   7.716   4.813   0.578
 4915SOL     OW19657   1.434   9.119   3.905
 4915SOL    HW119658   1.449   9.055   3.835
 4915SOL    HW219659   1.480   9.197   3.876
 4915SOL     MW19660   1.442   9.121   3.892
 4916SOL     OW19661   2.132   9.628   4.711
 4916SOL    HW119662   2.068   9.617   4.782
 4916SOL    HW219663   2.152   9.722   4.711
 4916SOL     MW19664   2.126   9.639   4.720
 4917SOL     OW19665   6.376  10.082   6.620
 4917SOL    HW119666   6.359  10.010   6.682
 4917SOL    HW219667   6.471  10.095   6.623
 4917SOL     MW19668   6.386  10.074   6.628
 4918SOL     OW19669  10.023   8.542   9.075
 4918SOL    HW119670   9.989   8.508   8.992
 4918SOL    HW219671  10.115   8.562   9.057
 4918SOL     MW19672  10.031   8.540   9.062
 4919SOL     OW19673   9.322   7.021   2.564
 4919SOL    HW119674   9.277   6.937   2.565
 4919SOL    HW219675   9.253   7.085   2.547
 4919SOL     MW19676   9.307   7.018   2.562
 4920SOL     OW19677   7.914   8.311   4.867
 4920SOL    HW119678   7.848   8.246   4.892
 4920SOL    HW219679   7.928   8.363   4.945
 4920SOL     MW19680   7.908   8.309   4.880
 4921SOL     OW19681   8.528   7.451   7.928
 4921SOL    HW119682   8.450   7.400   7.908
 4921SOL    HW219683   8.512   7.536   7.888
 4921SOL     MW19684   8.516   7.456   7.921
 4922SOL     OW19685   6.406   4.048   2.121
 4922SOL    HW119686   6.450   4.129   2.148
 4922SOL    HW219687   6.399   3.997   2.202
 4922SOL     MW19688   6.410   4.052   2.135
 4923SOL     OW19689   3.691   5.499   7.698
 4923SOL    HW119690   3.692   5.425   7.759
 4923SOL    HW219691   3.643   5.467   7.622
 4923SOL     MW19692   3.685   5.485   7.696
 4924SOL     OW19693   4.501   3.358   6.750
 4924SOL    HW119694   4.516   3.355   6.845
 4924SOL    HW219695   4.503   3.451   6.729
 4924SOL     MW19696   4.503   3.369   6.759
 4925SOL     OW19697   4.153   5.093   7.382
 4925SOL    HW119698   4.124   5.179   7.411
 4925SOL    HW219699   4.243   5.085   7.414
 4925SOL     MW19700   4.161   5.103   7.390
 4926SOL     OW19701   7.082   5.658   6.427
 4926SOL    HW119702   7.174   5.681   6.420
 4926SOL    HW219703   7.042   5.692   6.347
 4926SOL     MW19704   7.088   5.665   6.416
 4927SOL     OW19705   8.170   1.064   8.574
 4927SOL    HW119706   8.146   1.057   8.481
 4927SOL    HW219707   8.183   1.158   8.588
 4927SOL     MW19708   8.168   1.075   8.564
 4928SOL     OW19709   5.264   0.085   2.176
 4928SOL    HW119710   5.258   0.170   2.133
 4928SOL    HW219711   5.181   0.041   2.155
 4928SOL     MW19712   5.253   0.090   2.168
 4929SOL     OW19713   7.636   4.745   7.104
 4929SOL    HW119714   7.554   4.792   7.120
 4929SOL    HW219715   7.704   4.809   7.124
 4929SOL     MW19716   7.634   4.759   7.109
 4930SOL     OW19717   7.325   0.913   7.291
 4930SOL    HW119718   7.393   0.958   7.240
 4930SOL    HW219719   7.372   0.843   7.336
 4930SOL     MW19720   7.340   0.910   7.290
 4931SOL     OW19721   2.882   8.292   2.139
 4931SOL    HW119722   2.857   8.241   2.215
 4931SOL    HW219723   2.817   8.269   2.072
 4931SOL     MW19724   2.871   8.283   2.140
 4932SOL     OW19725   4.537   6.608   7.101
 4932SOL    HW119726   4.478   6.660   7.155
 4932SOL    HW219727   4.616   6.597   7.155
 4932SOL     MW19728   4.540   6.613   7.115
 4933SOL     OW19729   0.505   6.227   7.102
 4933SOL    HW119730   0.525   6.205   7.011
 4933SOL    HW219731   0.564   6.171   7.153
 4933SOL     MW19732   0.515   6.217   7.097
 4934SOL     OW19733   9.281   0.078   8.847
 4934SOL    HW119734   9.364   0.115   8.875
 4934SOL    HW219735   9.289  -0.016   8.865
 4934SOL     MW19736   9.293   0.070   8.853
 4935SOL     OW19737   0.294   5.312   9.179
 4935SOL    HW119738   0.205   5.328   9.212
 4935SOL    HW219739   0.346   5.383   9.217
 4935SOL     MW19740   0.289   5.323   9.189
 4936SOL     OW19741   2.103   9.095   8.069
 4936SOL    HW119742   2.071   9.176   8.029
 4936SOL    HW219743   2.138   9.122   8.154
 4936SOL     MW19744   2.103   9.109   8.074
 4937SOL     OW19745   3.015   6.276   5.731
 4937SOL    HW119746   3.015   6.353   5.788
 4937SOL    HW219747   3.098   6.282   5.683
 4937SOL     MW19748   3.026   6.287   5.733
 4938SOL     OW19749   5.900   4.325   2.380
 4938SOL    HW119750   5.989   4.305   2.351
 4938SOL    HW219751   5.848   4.319   2.300
 4938SOL     MW19752   5.905   4.322   2.366
 4939SOL     OW19753   4.100   8.088   5.286
 4939SOL    HW119754   4.058   8.075   5.371
 4939SOL    HW219755   4.062   8.169   5.253
 4939SOL     MW19756   4.090   8.097   5.292
 4940SOL     OW19757   3.197   0.608   6.474
 4940SOL    HW119758   3.176   0.562   6.556
 4940SOL    HW219759   3.268   0.557   6.436
 4940SOL     MW19760   3.204   0.596   6.480
 4941SOL     OW19761   6.078   5.764   8.295
 4941SOL    HW119762   6.132   5.710   8.353
 4941SOL    HW219763   6.140   5.822   8.252
 4941SOL     MW19764   6.093   5.764   8.297
 4942SOL     OW19765   9.571   9.412   9.493
 4942SOL    HW119766   9.547   9.465   9.417
 4942SOL    HW219767   9.653   9.450   9.524
 4942SOL     MW19768   9.578   9.424   9.487
 4943SOL     OW19769   9.012   5.833   9.659
 4943SOL    HW119770   8.945   5.815   9.593
 4943SOL    HW219771   9.060   5.908   9.624
 4943SOL     MW19772   9.009   5.840   9.646
 4944SOL     OW19773   3.280   4.869   3.602
 4944SOL    HW119774   3.283   4.835   3.513
 4944SOL    HW219775   3.305   4.796   3.657
 4944SOL     MW19776   3.284   4.856   3.597
 4945SOL     OW19777   0.606   6.112   7.530
 4945SOL    HW119778   0.542   6.060   7.578
 4945SOL    HW219779   0.606   6.197   7.574
 4945SOL     MW19780   0.598   6.116   7.542
 4946SOL     OW19781   3.364   2.558   3.565
 4946SOL    HW119782   3.325   2.622   3.505
 4946SOL    HW219783   3.366   2.602   3.650
 4946SOL     MW19784   3.359   2.572   3.568
 4947SOL     OW19785   2.690   5.792   2.587
 4947SOL    HW119786   2.633   5.738   2.642
 4947SOL    HW219787   2.666   5.882   2.610
 4947SOL     MW19788   2.680   5.797   2.597
 4948SOL     OW19789   1.893   3.118   7.551
 4948SOL    HW119790   1.916   3.057   7.621
 4948SOL    HW219791   1.815   3.080   7.511
 4948SOL     MW19792   1.886   3.105   7.555
 4949SOL     OW19793   9.817   4.419  -0.008
 4949SOL    HW119794   9.909   4.393  -0.005
 4949SOL    HW219795   9.814   4.503   0.038
 4949SOL     MW19796   9.828   4.427  -0.002
 4950SOL     OW19797   5.281   1.075   6.056
 4950SOL    HW119798   5.239   1.145   6.007
 4950SOL    HW219799   5.252   1.088   6.147
 4950SOL     MW19800   5.272   1.085   6.062
 4951SOL     OW19801   3.805   1.888   6.028
 4951SOL    HW119802   3.835   1.799   6.010
 4951SOL    HW219803   3.820   1.934   5.945
 4951SOL     MW19804   3.811   1.882   6.015
 4952SOL     OW19805   9.093   0.840   3.367
 4952SOL    HW119806   9.119   0.833   3.275
 4952SOL    HW219807   9.171   0.815   3.416
 4952SOL     MW19808   9.106   0.836   3.362
 4953SOL     OW19809   2.881   7.100   3.663
 4953SOL    HW119810   2.946   7.103   3.593
 4953SOL    HW219811   2.932   7.104   3.743
 4953SOL     MW19812   2.896   7.101   3.664
 4954SOL     OW19813   9.699   1.069   5.221
 4954SOL    HW119814   9.709   1.093   5.314
 4954SOL    HW219815   9.762   0.999   5.207
 4954SOL     MW19816   9.708   1.063   5.231
 4955SOL     OW19817   3.868   6.412   3.854
 4955SOL    HW119818   3.800   6.437   3.916
 4955SOL    HW219819   3.938   6.375   3.909
 4955SOL     MW19820   3.868   6.410   3.869
 4956SOL     OW19821   9.159   6.209   8.677
 4956SOL    HW119822   9.094   6.142   8.695
 4956SOL    HW219823   9.230   6.190   8.738
 4956SOL     MW19824   9.160   6.198   8.687
 4957SOL     OW19825   6.031   2.299   4.088
 4957SOL    HW119826   5.944   2.327   4.118
 4957SOL    HW219827   6.076   2.272   4.168
 4957SOL     MW19828   6.026   2.299   4.102
 4958SOL     OW19829   7.220   4.168   8.666
 4958SOL    HW119830   7.218   4.128   8.753
 4958SOL    HW219831   7.175   4.105   8.610
 4958SOL     MW19832   7.214   4.155   8.670
 4959SOL     OW19833   4.703   1.563   5.792
 4959SOL    HW119834   4.707   1.653   5.760
 4959SOL    HW219835   4.750   1.512   5.727
 4959SOL     MW19836   4.710   1.568   5.780
 4960SOL     OW19837   3.293   8.126   5.400
 4960SOL    HW119838   3.293   8.169   5.315
 4960SOL    HW219839   3.210   8.153   5.441
 4960SOL     MW19840   3.282   8.135   5.395
 4961SOL     OW19841   6.356   3.890   2.346
 4961SOL    HW119842   6.264   3.865   2.338
 4961SOL    HW219843   6.384   3.854   2.430
 4961SOL     MW19844   6.348   3.883   2.356
 4962SOL     OW19845   2.825   7.193   6.461
 4962SOL    HW119846   2.807   7.123   6.525
 4962SOL    HW219847   2.917   7.183   6.439
 4962SOL     MW19848   2.834   7.183   6.467
 4963SOL     OW19849   9.528   4.190   9.234
 4963SOL    HW119850   9.489   4.272   9.264
 4963SOL    HW219851   9.517   4.191   9.139
 4963SOL     MW19852   9.522   4.200   9.226
 4964SOL     OW19853   4.725   4.341   2.876
 4964SOL    HW119854   4.761   4.401   2.941
 4964SOL    HW219855   4.684   4.272   2.929
 4964SOL     MW19856   4.724   4.340   2.891
 4965SOL     OW19857   6.559   5.857   4.423
 4965SOL    HW119858   6.567   5.770   4.383
 4965SOL    HW219859   6.531   5.914   4.351
 4965SOL     MW19860   6.556   5.853   4.409
 4966SOL     OW19861   3.995   9.609   6.263
 4966SOL    HW119862   4.006   9.514   6.258
 4966SOL    HW219863   4.084   9.643   6.269
 4966SOL     MW19864   4.008   9.601   6.263
 4967SOL     OW19865   3.889  10.051   5.738
 4967SOL    HW119866   3.798  10.023   5.749
 4967SOL    HW219867   3.889  10.143   5.762
 4967SOL     MW19868   3.878  10.059   5.742
 4968SOL     OW19869   2.770   0.452   1.666
 4968SOL    HW119870   2.734   0.504   1.594
 4968SOL    HW219871   2.864   0.457   1.655
 4968SOL     MW19872   2.777   0.459   1.656
 4969SOL     OW19873   5.715   4.183   2.520
 4969SOL    HW119874   5.648   4.249   2.535
 4969SOL    HW219875   5.785   4.229   2.475
 4969SOL     MW19876   5.715   4.197   2.516
 4970SOL     OW19877   0.221   2.368   7.851
 4970SOL    HW119878   0.303   2.366   7.803
 4970SOL    HW219879   0.167   2.432   7.804
 4970SOL     MW19880   0.224   2.376   7.839
 4971SOL     OW19881   8.763   6.194   1.866
 4971SOL    HW119882   8.854   6.218   1.848
 4971SOL    HW219883   8.763   6.098   1.863
 4971SOL     MW19884   8.775   6.185   1.863
 4972SOL     OW19885   4.603   2.432   1.943
 4972SOL    HW119886   4.643   2.480   2.016
 4972SOL    HW219887   4.652   2.350   1.938
 4972SOL     MW19888   4.615   2.428   1.951
 4973SOL     OW19889   2.191   3.841   0.149
 4973SOL    HW119890   2.228   3.764   0.192
 4973SOL    HW219891   2.136   3.881   0.216
 4973SOL     MW19892   2.188   3.836   0.163
 4974SOL     OW19893   0.418   6.365   9.153
 4974SOL    HW119894   0.455   6.442   9.195
 4974SOL    HW219895   0.470   6.292   9.187
 4974SOL     MW19896   0.430   6.365   9.163
 4975SOL     OW19897   2.163   5.219   6.837
 4975SOL    HW119898   2.199   5.295   6.883
 4975SOL    HW219899   2.238   5.161   6.822
 4975SOL     MW19900   2.177   5.221   6.841
 4976SOL     OW19901   9.922   1.048   9.710
 4976SOL    HW119902   9.915   1.140   9.683
 4976SOL    HW219903  10.009   1.042   9.749
 4976SOL     MW19904   9.933   1.059   9.711
 4977SOL     OW19905   7.201   8.962   6.711
 4977SOL    HW119906   7.166   8.876   6.734
 4977SOL    HW219907   7.291   8.960   6.744
 4977SOL     MW19908   7.208   8.951   6.718
 4978SOL     OW19909   4.656   7.570   2.196
 4978SOL    HW119910   4.750   7.559   2.212
 4978SOL    HW219911   4.651   7.632   2.123
 4978SOL     MW19912   4.667   7.576   2.189
 4979SOL     OW19913   3.748   2.400   6.787
 4979SOL    HW119914   3.663   2.360   6.767
 4979SOL    HW219915   3.733   2.494   6.777
 4979SOL     MW19916   3.735   2.407   6.783
 4980SOL     OW19917   2.649   8.123   3.813
 4980SOL    HW119918   2.604   8.048   3.852
 4980SOL    HW219919   2.742   8.105   3.827
 4980SOL     MW19920   2.655   8.111   3.820
 4981SOL     OW19921   1.862   2.646   1.683
 4981SOL    HW119922   1.832   2.634   1.773
 4981SOL    HW219923   1.957   2.654   1.690
 4981SOL     MW19924   1.870   2.646   1.696
 4982SOL     OW19925   1.919   6.994   2.040
 4982SOL    HW119926   1.877   6.908   2.044
 4982SOL    HW219927   1.885   7.034   1.961
 4982SOL     MW19928   1.909   6.988   2.031
 4983SOL     OW19929   3.222   2.589   9.161
 4983SOL    HW119930   3.158   2.600   9.091
 4983SOL    HW219931   3.230   2.676   9.201
 4983SOL     MW19932   3.215   2.602   9.157
 4984SOL     OW19933   7.272   7.523   0.406
 4984SOL    HW119934   7.298   7.436   0.439
 4984SOL    HW219935   7.354   7.572   0.402
 4984SOL     MW19936   7.286   7.518   0.410
 4985SOL     OW19937   9.458   1.429   3.898
 4985SOL    HW119938   9.489   1.354   3.846
 4985SOL    HW219939   9.395   1.391   3.959
 4985SOL     MW19940   9.454   1.414   3.899
 4986SOL     OW19941   3.930   8.699   0.406
 4986SOL    HW119942   3.977   8.720   0.487
 4986SOL    HW219943   3.843   8.735   0.419
 4986SOL     MW19944   3.925   8.706   0.418
 4987SOL     OW19945   2.356   6.971   0.849
 4987SOL    HW119946   2.413   6.961   0.926
 4987SOL    HW219947   2.409   7.022   0.787
 4987SOL     MW19948   2.370   6.976   0.851
 4988SOL     OW19949   1.163   8.498   3.349
 4988SOL    HW119950   1.084   8.444   3.359
 4988SOL    HW219951   1.217   8.450   3.287
 4988SOL     MW19952   1.160   8.485   3.343
 4989SOL     OW19953   7.766   5.802   4.057
 4989SOL    HW119954   7.850   5.787   4.100
 4989SOL    HW219955   7.755   5.898   4.059
 4989SOL     MW19956   7.775   5.813   4.063
 4990SOL     OW19957  10.025   5.579   8.278
 4990SOL    HW119958  10.110   5.572   8.235
 4990SOL    HW219959   9.985   5.493   8.267
 4990SOL     MW19960  10.030   5.567   8.271
 4991SOL     OW19961   3.866   7.122   7.484
 4991SOL    HW119962   3.957   7.126   7.514
 4991SOL    HW219963   3.851   7.030   7.463
 4991SOL     MW19964   3.876   7.111   7.485
 4992SOL     OW19965   8.347   4.876   9.278
 4992SOL    HW119966   8.317   4.803   9.222
 4992SOL    HW219967   8.410   4.923   9.223
 4992SOL     MW19968   8.351   4.872   9.264
 4993SOL     OW19969   3.003   5.394   7.494
 4993SOL    HW119970   2.937   5.341   7.538
 4993SOL    HW219971   2.982   5.484   7.518
 4993SOL     MW19972   2.992   5.398   7.503
 4994SOL     OW19973   7.723   6.408   5.193
 4994SOL    HW119974   7.797   6.348   5.203
 4994SOL    HW219975   7.763   6.494   5.181
 4994SOL     MW19976   7.738   6.411   5.193
 4995SOL     OW19977   2.242   9.105   8.751
 4995SOL    HW119978   2.224   9.094   8.844
 4995SOL    HW219979   2.164   9.072   8.707
 4995SOL     MW19980   2.230   9.099   8.757
 4996SOL     OW19981   7.050   7.830   5.000
 4996SOL    HW119982   7.045   7.736   5.015
 4996SOL    HW219983   7.128   7.858   5.047
 4996SOL     MW19984   7.059   7.822   5.008
 4997SOL     OW19985   0.541   0.142   9.559
 4997SOL    HW119986   0.518   0.129   9.467
 4997SOL    HW219987   0.601   0.216   9.559
 4997SOL     MW19988   0.546   0.150   9.547
 4998SOL     OW19989   0.515   7.041   8.644
 4998SOL    HW119990   0.514   6.981   8.718
 4998SOL    HW219991   0.459   7.114   8.671
 4998SOL     MW19992   0.508   7.042   8.657
 4999SOL     OW19993   7.010   6.838   2.195
 4999SOL    HW119994   7.058   6.913   2.160
 4999SOL    HW219995   6.919   6.855   2.174
 4999SOL     MW19996   7.005   6.849   2.188
 5000SOL     OW19997   3.649   6.973   0.789
 5000SOL    HW119998   3.647   6.887   0.748
 5000SOL    HW219999   3.722   7.018   0.748
 5000SOL     MW20000   3.658   6.968   0.779
 5001SOL     OW20001   6.365   0.586   2.867
 5001SOL    HW120002   6.376   0.544   2.782
 5001SOL    HW220003   6.284   0.635   2.860
 5001SOL     MW20004   6.356   0.587   2.855
 5002SOL     OW20005   2.644   6.760   7.058
 5002SOL    HW120006   2.645   6.675   7.103
 5002SOL    HW220007   2.604   6.820   7.121
 5002SOL     MW20008   2.639   6.756   7.072
 5003SOL     OW20009   2.504   1.549   2.295
 5003SOL    HW120010   2.423   1.504   2.319
 5003SOL    HW220011   2.573   1.496   2.334
 5003SOL     MW20012   2.502   1.536   2.303
 5004SOL     OW20013   8.939   0.924   8.375
 5004SOL    HW120014   8.848   0.893   8.370
 5004SOL    HW220015   8.954   0.939   8.468
 5004SOL     MW20016   8.929   0.922   8.386
 5005SOL     OW20017   8.841   5.758   9.181
 5005SOL    HW120018   8.830   5.779   9.273
 5005SOL    HW220019   8.903   5.685   9.180
 5005SOL     MW20020   8.847   5.751   9.193
 5006SOL     OW20021   9.437   9.730   6.385
 5006SOL    HW120022   9.461   9.638   6.393
 5006SOL    HW220023   9.393   9.751   6.468
 5006SOL     MW20024   9.434   9.721   6.397
 5007SOL     OW20025   2.702   4.535   0.262
 5007SOL    HW120026   2.733   4.609   0.211
 5007SOL    HW220027   2.759   4.532   0.339
 5007SOL     MW20028   2.713   4.544   0.266
 5008SOL     OW20029   3.630   0.941   5.100
 5008SOL    HW120030   3.723   0.924   5.116
 5008SOL    HW220031   3.592   0.855   5.085
 5008SOL     MW20032   3.637   0.928   5.100
 5009SOL     OW20033   1.890   7.801   6.277
 5009SOL    HW120034   1.897   7.896   6.266
 5009SOL    HW220035   1.808   7.779   6.233
 5009SOL     MW20036   1.880   7.810   6.270
 5010SOL     OW20037   5.411   7.863  10.115
 5010SOL    HW120038   5.402   7.954  10.144
 5010SOL    HW220039   5.321   7.831  10.109
 5010SOL     MW20040   5.398   7.870  10.118
 5011SOL     OW20041   4.895   5.988   8.667
 5011SOL    HW120042   4.878   5.918   8.604
 5011SOL    HW220043   4.986   5.975   8.694
 5011SOL     MW20044   4.905   5.978   8.662
 5012SOL     OW20045   2.608   2.533   5.761
 5012SOL    HW120046   2.643   2.465   5.818
 5012SOL    HW220047   2.544   2.579   5.815
 5012SOL     MW20048   2.604   2.530   5.775
 5013SOL     OW20049   4.487   8.664   6.307
 5013SOL    HW120050   4.490   8.682   6.213
 5013SOL    HW220051   4.523   8.744   6.347
 5013SOL     MW20052   4.492   8.677   6.300
 5014SOL     OW20053   9.295   5.097   7.072
 5014SOL    HW120054   9.217   5.045   7.052
 5014SOL    HW220055   9.264   5.187   7.077
 5014SOL     MW20056   9.281   5.102   7.070
 5015SOL     OW20057   2.059   9.792   6.451
 5015SOL    HW120058   2.146   9.810   6.485
 5015SOL    HW220059   2.073   9.728   6.381
 5015SOL     MW20060   2.072   9.787   6.446
 5016SOL     OW20061   3.683   9.201   1.378
 5016SOL    HW120062   3.619   9.208   1.307
 5016SOL    HW220063   3.729   9.285   1.377
 5016SOL     MW20064   3.681   9.213   1.369
 5017SOL     OW20065   2.469   3.595   8.311
 5017SOL    HW120066   2.395   3.574   8.253
 5017SOL    HW220067   2.542   3.543   8.278
 5017SOL     MW20068   2.469   3.586   8.299
 5018SOL     OW20069   9.527   5.277   5.357
 5018SOL    HW120070   9.500   5.369   5.350
 5018SOL    HW220071   9.454   5.234   5.401
 5018SOL     MW20072   9.514   5.283   5.362
 5019SOL     OW20073   5.196   8.513   2.809
 5019SOL    HW120074   5.160   8.431   2.845
 5019SOL    HW220075   5.230   8.559   2.885
 5019SOL     MW20076   5.195   8.508   2.823
 5020SOL     OW20077   4.354   6.731   7.262
 5020SOL    HW120078   4.290   6.661   7.269
 5020SOL    HW220079   4.302   6.811   7.253
 5020SOL     MW20080   4.339   6.732   7.261
 5021SOL     OW20081   1.240   1.830  10.083
 5021SOL    HW120082   1.292   1.751  10.098
 5021SOL    HW220083   1.291   1.900  10.125
 5021SOL     MW20084   1.253   1.829  10.090
 5022SOL     OW20085   8.083   9.432   5.662
 5022SOL    HW120086   7.998   9.471   5.643
 5022SOL    HW220087   8.127   9.428   5.577
 5022SOL     MW20088   8.078   9.436   5.649
 5023SOL     OW20089   5.913   6.393   5.152
 5023SOL    HW120090   5.839   6.361   5.204
 5023SOL    HW220091   5.908   6.488   5.159
 5023SOL     MW20092   5.903   6.401   5.160
 5024SOL     OW20093  10.054   2.989   4.665
 5024SOL    HW120094  10.086   3.077   4.683
 5024SOL    HW220095  10.133   2.936   4.655
 5024SOL     MW20096  10.068   2.993   4.666
 5025SOL     OW20097   5.420   4.686   6.491
 5025SOL    HW120098   5.500   4.713   6.536
 5025SOL    HW220099   5.433   4.714   6.400
 5025SOL     MW20100   5.432   4.693   6.485
 5026SOL     OW20101   6.171   0.067   3.266
 5026SOL    HW120102   6.096   0.109   3.224
 5026SOL    HW220103   6.243   0.082   3.205
 5026SOL     MW20104   6.171   0.075   3.253
 5027SOL     OW20105   6.079   7.715   5.750
 5027SOL    HW120106   6.097   7.638   5.804
 5027SOL    HW220107   5.991   7.700   5.716
 5027SOL     MW20108   6.070   7.703   5.753
 5028SOL     OW20109   7.764   5.531   3.572
 5028SOL    HW120110   7.744   5.563   3.660
 5028SOL    HW220111   7.695   5.467   3.554
 5028SOL     MW20112   7.752   5.527   3.581
 5029SOL     OW20113   5.185   5.901   2.979
 5029SOL    HW120114   5.195   5.986   2.936
 5029SOL    HW220115   5.258   5.849   2.947
 5029SOL     MW20116   5.195   5.905   2.969
 5030SOL     OW20117   3.524   3.895   5.574
 5030SOL    HW120118   3.462   3.878   5.503
 5030SOL    HW220119   3.512   3.822   5.635
 5030SOL     MW20120   3.515   3.883   5.573
 5031SOL     OW20121   7.804   5.264   0.673
 5031SOL    HW120122   7.794   5.174   0.704
 5031SOL    HW220123   7.844   5.310   0.746
 5031SOL     MW20124   7.808   5.258   0.686
 5032SOL     OW20125   2.877   9.630   6.777
 5032SOL    HW120126   2.790   9.668   6.784
 5032SOL    HW220127   2.901   9.606   6.866
 5032SOL     MW20128   2.869   9.632   6.789
 5033SOL     OW20129   7.856   3.273   3.678
 5033SOL    HW120130   7.876   3.213   3.750
 5033SOL    HW220131   7.775   3.238   3.640
 5033SOL     MW20132   7.848   3.261   3.682
 5034SOL     OW20133   9.884   6.612   3.259
 5034SOL    HW120134   9.848   6.613   3.170
 5034SOL    HW220135   9.860   6.527   3.295
 5034SOL     MW20136   9.877   6.602   3.252
 5035SOL     OW20137   0.816   7.694   9.740
 5035SOL    HW120138   0.863   7.777   9.736
 5035SOL    HW220139   0.725   7.717   9.719
 5035SOL     MW20140   0.810   7.708   9.737
 5036SOL     OW20141   8.898   8.898   4.116
 5036SOL    HW120142   8.914   8.927   4.026
 5036SOL    HW220143   8.895   8.803   4.111
 5036SOL     MW20144   8.900   8.890   4.104
 5037SOL     OW20145   5.648   9.637   1.284
 5037SOL    HW120146   5.673   9.548   1.260
 5037SOL    HW220147   5.712   9.692   1.240
 5037SOL     MW20148   5.659   9.633   1.275
 5038SOL     OW20149   5.973   2.009   7.803
 5038SOL    HW120150   5.900   2.041   7.857
 5038SOL    HW220151   6.022   2.088   7.781
 5038SOL     MW20152   5.970   2.024   7.807
 5039SOL     OW20153   7.255   6.612   7.331
 5039SOL    HW120154   7.170   6.654   7.347
 5039SOL    HW220155   7.304   6.626   7.413
 5039SOL     MW20156   7.251   6.619   7.344
 5040SOL     OW20157   3.345   1.485   5.304
 5040SOL    HW120158   3.266   1.495   5.251
 5040SOL    HW220159   3.377   1.397   5.283
 5040SOL     MW20160   3.339   1.475   5.294
 5041SOL     OW20161   5.188   3.853   1.433
 5041SOL    HW120162   5.099   3.889   1.435
 5041SOL    HW220163   5.213   3.857   1.341
 5041SOL     MW20164   5.180   3.858   1.422
 5042SOL     OW20165   5.805   9.260   3.900
 5042SOL    HW120166   5.804   9.164   3.893
 5042SOL    HW220167   5.884   9.286   3.853
 5042SOL     MW20168   5.815   9.251   3.893
 5043SOL     OW20169   9.035   2.004   8.970
 5043SOL    HW120170   8.949   1.978   9.002
 5043SOL    HW220171   9.019   2.080   8.914
 5043SOL     MW20172   9.022   2.011   8.967
 5044SOL     OW20173   4.518   8.992   9.270
 5044SOL    HW120174   4.451   9.037   9.219
 5044SOL    HW220175   4.490   8.900   9.272
 5044SOL     MW20176   4.506   8.986   9.264
 5045SOL     OW20177   4.683   7.263   6.450
 5045SOL    HW120178   4.712   7.252   6.360
 5045SOL    HW220179   4.706   7.354   6.471
 5045SOL     MW20180   4.690   7.273   6.441
 5046SOL     OW20181   4.715   9.379   4.720
 5046SOL    HW120182   4.646   9.329   4.763
 5046SOL    HW220183   4.679   9.468   4.712
 5046SOL     MW20184   4.701   9.384   4.724
 5047SOL     OW20185   2.846   2.121   3.408
 5047SOL    HW120186   2.911   2.051   3.413
 5047SOL    HW220187   2.832   2.148   3.499
 5047SOL     MW20188   2.853   2.116   3.420
 5048SOL     OW20189   3.050   9.202   2.242
 5048SOL    HW120190   3.044   9.255   2.162
 5048SOL    HW220191   3.059   9.112   2.211
 5048SOL     MW20192   3.051   9.197   2.228
 5049SOL     OW20193   0.426   7.919   9.498
 5049SOL    HW120194   0.430   7.914   9.403
 5049SOL    HW220195   0.418   8.012   9.517
 5049SOL     MW20196   0.425   7.930   9.488
 5050SOL     OW20197   6.809  10.166   4.162
 5050SOL    HW120198   6.792  10.097   4.097
 5050SOL    HW220199   6.766  10.134   4.242
 5050SOL     MW20200   6.801  10.153   4.164
 5051SOL     OW20201   3.792   5.839   5.588
 5051SOL    HW120202   3.721   5.796   5.635
 5051SOL    HW220203   3.808   5.783   5.511
 5051SOL     MW20204   3.785   5.826   5.584
 5052SOL     OW20205   3.120   1.391   1.579
 5052SOL    HW120206   3.113   1.476   1.536
 5052SOL    HW220207   3.204   1.395   1.626
 5052SOL     MW20208   3.130   1.402   1.580
 5053SOL     OW20209   0.571   1.278   6.151
 5053SOL    HW120210   0.617   1.254   6.232
 5053SOL    HW220211   0.565   1.196   6.102
 5053SOL     MW20212   0.576   1.264   6.155
 5054SOL     OW20213   9.731   8.917   8.631
 5054SOL    HW120214   9.641   8.934   8.605
 5054SOL    HW220215   9.745   8.974   8.707
 5054SOL     MW20216   9.721   8.927   8.638
 5055SOL     OW20217   2.365   4.892   5.164
 5055SOL    HW120218   2.369   4.979   5.125
 5055SOL    HW220219   2.368   4.832   5.090
 5055SOL     MW20220   2.366   4.895   5.150
 5056SOL     OW20221   0.536   9.580   4.059
 5056SOL    HW120222   0.444   9.579   4.084
 5056SOL    HW220223   0.536   9.572   3.963
 5056SOL     MW20224   0.524   9.579   4.050
 5057SOL     OW20225   5.553   3.869   4.653
 5057SOL    HW120226   5.490   3.836   4.589
 5057SOL    HW220227   5.583   3.791   4.699
 5057SOL     MW20228   5.549   3.855   4.651
 5058SOL     OW20229   4.731   9.418   9.709
 5058SOL    HW120230   4.782   9.499   9.707
 5058SOL    HW220231   4.797   9.349   9.712
 5058SOL     MW20232   4.746   9.419   9.710
 5059SOL     OW20233   3.758   2.355   4.885
 5059SOL    HW120234   3.772   2.262   4.869
 5059SOL    HW220235   3.693   2.380   4.819
 5059SOL     MW20236   3.751   2.346   4.874
 5060SOL     OW20237   8.425   8.002   4.934
 5060SOL    HW120238   8.519   8.020   4.943
 5060SOL    HW220239   8.410   8.001   4.839
 5060SOL     MW20240   8.435   8.004   4.923
 5061SOL     OW20241   2.921   8.622   0.880
 5061SOL    HW120242   2.910   8.715   0.857
 5061SOL    HW220243   2.989   8.623   0.948
 5061SOL     MW20244   2.929   8.634   0.886
 5062SOL     OW20245   0.004   1.222   9.023
 5062SOL    HW120246   0.026   1.241   9.114
 5062SOL    HW220247  -0.032   1.305   8.990
 5062SOL     MW20248   0.002   1.235   9.030
 5063SOL     OW20249   3.596   2.735   9.504
 5063SOL    HW120250   3.635   2.745   9.590
 5063SOL    HW220251   3.533   2.663   9.515
 5063SOL     MW20252   3.593   2.727   9.516
 5064SOL     OW20253   3.245   1.768   7.870
 5064SOL    HW120254   3.328   1.745   7.829
 5064SOL    HW220255   3.224   1.692   7.925
 5064SOL     MW20256   3.253   1.755   7.872
 5065SOL     OW20257   3.336   1.905   9.889
 5065SOL    HW120258   3.347   2.000   9.896
 5065SOL    HW220259   3.329   1.875   9.979
 5065SOL     MW20260   3.337   1.913   9.901
 5066SOL     OW20261   8.329   3.044   6.633
 5066SOL    HW120262   8.288   3.104   6.572
 5066SOL    HW220263   8.304   2.957   6.603
 5066SOL     MW20264   8.321   3.041   6.622
 5067SOL     OW20265   5.892   0.040   8.362
 5067SOL    HW120266   5.881   0.088   8.280
 5067SOL    HW220267   5.965   0.085   8.406
 5067SOL     MW20268   5.900   0.052   8.357
 5068SOL     OW20269   7.138   3.512   1.979
 5068SOL    HW120270   7.081   3.588   1.990
 5068SOL    HW220271   7.213   3.545   1.929
 5068SOL     MW20272   7.141   3.526   1.974
 5069SOL     OW20273   2.334   3.143   7.479
 5069SOL    HW120274   2.412   3.093   7.502
 5069SOL    HW220275   2.332   3.216   7.541
 5069SOL     MW20276   2.344   3.146   7.490
 5070SOL     OW20277   4.102   5.349   7.473
 5070SOL    HW120278   4.052   5.394   7.541
 5070SOL    HW220279   4.138   5.419   7.419
 5070SOL     MW20280   4.100   5.364   7.475
 5071SOL     OW20281   4.052   4.997   0.154
 5071SOL    HW120282   4.129   5.051   0.167
 5071SOL    HW220283   4.055   4.932   0.225
 5071SOL     MW20284   4.062   4.995   0.165
 5072SOL     OW20285   9.515   1.882   1.955
 5072SOL    HW120286   9.464   1.823   1.899
 5072SOL    HW220287   9.526   1.961   1.902
 5072SOL     MW20288   9.509   1.885   1.941
 5073SOL     OW20289   0.073   7.900   8.431
 5073SOL    HW120290   0.059   7.891   8.336
 5073SOL    HW220291   0.065   7.994   8.447
 5073SOL     MW20292   0.070   7.911   8.421
 5074SOL     OW20293   0.169   2.910   0.280
 5074SOL    HW120294   0.204   2.999   0.287
 5074SOL    HW220295   0.103   2.904   0.349
 5074SOL     MW20296   0.165   2.920   0.289
 5075SOL     OW20297   7.753   8.976   9.121
 5075SOL    HW120298   7.782   9.019   9.202
 5075SOL    HW220299   7.835   8.952   9.077
 5075SOL     MW20300   7.768   8.978   9.126
 5076SOL     OW20301   0.241   2.153   9.692
 5076SOL    HW120302   0.286   2.217   9.746
 5076SOL    HW220303   0.149   2.160   9.717
 5076SOL     MW20304   0.235   2.162   9.702
 5077SOL     OW20305   9.495   9.584   9.294
 5077SOL    HW120306   9.475   9.579   9.201
 5077SOL    HW220307   9.417   9.622   9.334
 5077SOL     MW20308   9.483   9.588   9.287
 5078SOL     OW20309   1.580   7.979   7.866
 5078SOL    HW120310   1.591   7.924   7.788
 5078SOL    HW220311   1.581   7.918   7.939
 5078SOL     MW20312   1.582   7.964   7.865
 5079SOL     OW20313   8.292   0.494   3.814
 5079SOL    HW120314   8.347   0.567   3.786
 5079SOL    HW220315   8.243   0.469   3.736
 5079SOL     MW20316   8.293   0.500   3.801
 5080SOL     OW20317   9.841   4.656   0.133
 5080SOL    HW120318   9.930   4.663   0.167
 5080SOL    HW220319   9.788   4.705   0.195
 5080SOL     MW20320   9.846   4.663   0.146
 5081SOL     OW20321   9.394   0.879   2.956
 5081SOL    HW120322   9.486   0.861   2.975
 5081SOL    HW220323   9.394   0.909   2.865
 5081SOL     MW20324   9.406   0.881   2.947
 5082SOL     OW20325   2.197   7.958   8.303
 5082SOL    HW120326   2.121   7.996   8.347
 5082SOL    HW220327   2.194   7.994   8.214
 5082SOL     MW20328   2.187   7.968   8.297
 5083SOL     OW20329   2.570   5.388   6.063
 5083SOL    HW120330   2.579   5.477   6.031
 5083SOL    HW220331   2.527   5.397   6.148
 5083SOL     MW20332   2.566   5.400   6.070
 5084SOL     OW20333   1.669   6.860   8.278
 5084SOL    HW120334   1.605   6.882   8.345
 5084SOL    HW220335   1.649   6.770   8.254
 5084SOL     MW20336   1.658   6.852   8.283
 5085SOL     OW20337   8.668   8.567   0.045
 5085SOL    HW120338   8.725   8.644   0.041
 5085SOL    HW220339   8.649   8.546  -0.047
 5085SOL     MW20340   8.673   8.574   0.032
 5086SOL     OW20341   3.022   6.437   9.203
 5086SOL    HW120342   3.099   6.422   9.148
 5086SOL    HW220343   3.020   6.532   9.217
 5086SOL     MW20344   3.031   6.447   9.198
 5087SOL     OW20345   3.985   1.234   0.598
 5087SOL    HW120346   3.930   1.293   0.546
 5087SOL    HW220347   4.062   1.219   0.544
 5087SOL     MW20348   3.988   1.240   0.584
 5088SOL     OW20349   7.288   6.538   6.016
 5088SOL    HW120350   7.208   6.590   6.013
 5088SOL    HW220351   7.336   6.562   5.937
 5088SOL     MW20352   7.284   6.547   6.006
 5089SOL     OW20353   1.947   9.726   6.691
 5089SOL    HW120354   1.994   9.787   6.748
 5089SOL    HW220355   1.978   9.745   6.603
 5089SOL     MW20356   1.957   9.736   6.687
 5090SOL     OW20357   1.574   1.499   6.362
 5090SOL    HW120358   1.487   1.534   6.338
 5090SOL    HW220359   1.559   1.454   6.444
 5090SOL     MW20360   1.561   1.498   6.369
 5091SOL     OW20361   2.675   1.200   8.299
 5091SOL    HW120362   2.614   1.244   8.239
 5091SOL    HW220363   2.634   1.115   8.316
 5091SOL     MW20364   2.662   1.195   8.294
 5092SOL     OW20365   5.770   1.455   0.907
 5092SOL    HW120366   5.823   1.441   0.986
 5092SOL    HW220367   5.733   1.543   0.919
 5092SOL     MW20368   5.772   1.465   0.919
 5093SOL     OW20369   4.249   8.169   7.350
 5093SOL    HW120370   4.159   8.196   7.368
 5093SOL    HW220371   4.251   8.155   7.255
 5093SOL     MW20372   4.238   8.171   7.340
 5094SOL     OW20373   5.921   1.619   7.646
 5094SOL    HW120374   5.994   1.675   7.673
 5094SOL    HW220375   5.858   1.679   7.607
 5094SOL     MW20376   5.922   1.634   7.644
 5095SOL     OW20377   8.987   5.812   3.495
 5095SOL    HW120378   9.023   5.786   3.411
 5095SOL    HW220379   8.916   5.873   3.474
 5095SOL     MW20380   8.982   5.816   3.482
 5096SOL     OW20381   2.911   8.222   6.668
 5096SOL    HW120382   2.863   8.155   6.716
 5096SOL    HW220383   2.953   8.275   6.735
 5096SOL     MW20384   2.910   8.220   6.683
 5097SOL     OW20385   6.546   3.778   6.960
 5097SOL    HW120386   6.510   3.865   6.976
 5097SOL    HW220387   6.551   3.772   6.864
 5097SOL     MW20388   6.542   3.789   6.949
 5098SOL     OW20389   4.392  10.179   5.480
 5098SOL    HW120390   4.331  10.110   5.505
 5098SOL    HW220391   4.437  10.145   5.403
 5098SOL     MW20392   4.390  10.166   5.474
 5099SOL     OW20393   5.778   8.577   4.171
 5099SOL    HW120394   5.856   8.618   4.209
 5099SOL    HW220395   5.718   8.566   4.244
 5099SOL     MW20396   5.781   8.581   4.185
 5100SOL     OW20397   6.887   3.587   2.926
 5100SOL    HW120398   6.919   3.667   2.967
 5100SOL    HW220399   6.957   3.561   2.866
 5100SOL     MW20400   6.900   3.594   2.923
 5101SOL     OW20401   1.589   7.295   6.317
 5101SOL    HW120402   1.540   7.371   6.284
 5101SOL    HW220403   1.528   7.222   6.311
 5101SOL     MW20404   1.575   7.296   6.312
 5102SOL     OW20405   4.385   5.201   5.147
 5102SOL    HW120406   4.310   5.166   5.098
 5102SOL    HW220407   4.392   5.145   5.223
 5102SOL     MW20408   4.376   5.190   5.150
 5103SOL     OW20409   9.901   7.145   8.479
 5103SOL    HW120410   9.878   7.138   8.572
 5103SOL    HW220411   9.834   7.094   8.434
 5103SOL     MW20412   9.890   7.138   8.485
 5104SOL     OW20413   9.000   3.851   4.340
 5104SOL    HW120414   8.906   3.847   4.327
 5104SOL    HW220415   9.037   3.811   4.261
 5104SOL     MW20416   8.993   3.846   4.328
 5105SOL     OW20417   0.853   7.867   3.260
 5105SOL    HW120418   0.763   7.840   3.274
 5105SOL    HW220419   0.905   7.804   3.311
 5105SOL     MW20420   0.848   7.855   3.268
 5106SOL     OW20421   1.098   6.932   6.328
 5106SOL    HW120422   1.005   6.932   6.307
 5106SOL    HW220423   1.142   6.933   6.243
 5106SOL     MW20424   1.092   6.932   6.314
 5107SOL     OW20425   4.816   8.020   4.354
 5107SOL    HW120426   4.748   8.085   4.333
 5107SOL    HW220427   4.858   8.055   4.432
 5107SOL     MW20428   4.813   8.033   4.361
 5108SOL     OW20429   4.572   6.688   5.581
 5108SOL    HW120430   4.479   6.707   5.566
 5108SOL    HW220431   4.571   6.616   5.644
 5108SOL     MW20432   4.560   6.681   5.587
 5109SOL     OW20433   8.032   6.015   7.362
 5109SOL    HW120434   8.068   6.104   7.368
 5109SOL    HW220435   7.998   6.009   7.273
 5109SOL     MW20436   8.032   6.026   7.352
 5110SOL     OW20437   7.779   6.518   1.443
 5110SOL    HW120438   7.871   6.524   1.418
 5110SOL    HW220439   7.777   6.453   1.514
 5110SOL     MW20440   7.790   6.510   1.449
 5111SOL     OW20441   0.324   0.281   8.167
 5111SOL    HW120442   0.376   0.361   8.156
 5111SOL    HW220443   0.378   0.225   8.223
 5111SOL     MW20444   0.338   0.284   8.173
 5112SOL     OW20445   1.861   3.338   7.720
 5112SOL    HW120446   1.867   3.276   7.647
 5112SOL    HW220447   1.842   3.422   7.678
 5112SOL     MW20448   1.859   3.341   7.705
 5113SOL     OW20449   8.666   8.716   7.903
 5113SOL    HW120450   8.717   8.770   7.964
 5113SOL    HW220451   8.640   8.640   7.956
 5113SOL     MW20452   8.669   8.713   7.918
 5114SOL     OW20453   1.464   2.936   1.437
 5114SOL    HW120454   1.386   2.955   1.384
 5114SOL    HW220455   1.445   2.852   1.477
 5114SOL     MW20456   1.451   2.928   1.435
 5115SOL     OW20457   9.039   3.501   3.330
 5115SOL    HW120458   9.107   3.567   3.342
 5115SOL    HW220459   8.971   3.545   3.279
 5115SOL     MW20460   9.039   3.515   3.325
 5116SOL     OW20461   4.004  10.053   6.157
 5116SOL    HW120462   3.946   9.978   6.167
 5116SOL    HW220463   4.066  10.047   6.229
 5116SOL     MW20464   4.005  10.043   6.167
 5117SOL     OW20465   8.395   7.399   6.076
 5117SOL    HW120466   8.423   7.395   5.985
 5117SOL    HW220467   8.471   7.435   6.122
 5117SOL     MW20468   8.408   7.403   6.070
 5118SOL     OW20469   7.261   6.424   9.840
 5118SOL    HW120470   7.267   6.367   9.763
 5118SOL    HW220471   7.181   6.397   9.885
 5118SOL     MW20472   7.251   6.413   9.836
 5119SOL     OW20473   7.842   2.823   3.933
 5119SOL    HW120474   7.792   2.823   3.851
 5119SOL    HW220475   7.784   2.782   3.997
 5119SOL     MW20476   7.828   2.818   3.931
 5120SOL     OW20477   7.962   3.364   1.810
 5120SOL    HW120478   8.026   3.376   1.740
 5120SOL    HW220479   8.012   3.324   1.881
 5120SOL     MW20480   7.977   3.360   1.810
 5121SOL     OW20481   7.247   4.261   4.762
 5121SOL    HW120482   7.239   4.348   4.800
 5121SOL    HW220483   7.337   4.235   4.780
 5121SOL     MW20484   7.258   4.269   4.769
 5122SOL     OW20485   5.039   8.438   0.105
 5122SOL    HW120486   5.053   8.459   0.197
 5122SOL    HW220487   4.950   8.469   0.087
 5122SOL     MW20488   5.029   8.445   0.114
 5123SOL     OW20489   2.278   8.830   3.857
 5123SOL    HW120490   2.207   8.846   3.794
 5123SOL    HW220491   2.258   8.887   3.931
 5123SOL     MW20492   2.267   8.839   3.858
 5124SOL     OW20493   1.795   7.095   1.814
 5124SOL    HW120494   1.730   7.165   1.818
 5124SOL    HW220495   1.829   7.099   1.725
 5124SOL     MW20496   1.791   7.104   1.803
 5125SOL     OW20497   3.756   6.887   2.414
 5125SOL    HW120498   3.750   6.981   2.434
 5125SOL    HW220499   3.847   6.865   2.431
 5125SOL     MW20500   3.767   6.896   2.419
 5126SOL     OW20501   0.055   1.785   6.206
 5126SOL    HW120502   0.098   1.855   6.255
 5126SOL    HW220503  -0.008   1.831   6.150
 5126SOL     MW20504   0.052   1.800   6.205
 5127SOL     OW20505   5.359   5.421   8.180
 5127SOL    HW120506   5.450   5.435   8.206
 5127SOL    HW220507   5.310   5.490   8.225
 5127SOL     MW20508   5.364   5.432   8.189
 5128SOL     OW20509   5.972   1.179   6.110
 5128SOL    HW120510   5.956   1.225   6.192
 5128SOL    HW220511   5.885   1.168   6.072
 5128SOL     MW20512   5.959   1.184   6.115
 5129SOL     OW20513   8.636   4.513   1.934
 5129SOL    HW120514   8.563   4.473   1.887
 5129SOL    HW220515   8.636   4.472   2.020
 5129SOL     MW20516   8.627   4.503   1.939
 5130SOL     OW20517   3.210   9.486   0.862
 5130SOL    HW120518   3.205   9.516   0.772
 5130SOL    HW220519   3.120   9.464   0.886
 5130SOL     MW20520   3.198   9.487   0.854
 5131SOL     OW20521   2.299   7.595   0.444
 5131SOL    HW120522   2.382   7.604   0.490
 5131SOL    HW220523   2.313   7.636   0.359
 5131SOL     MW20524   2.311   7.601   0.439
 5132SOL     OW20525   2.691   2.340   5.936
 5132SOL    HW120526   2.765   2.340   5.998
 5132SOL    HW220527   2.667   2.248   5.927
 5132SOL     MW20528   2.697   2.328   5.943
 5133SOL     OW20529   6.895   8.746   5.302
 5133SOL    HW120530   6.965   8.714   5.245
 5133SOL    HW220531   6.815   8.707   5.267
 5133SOL     MW20532   6.894   8.737   5.290
 5134SOL     OW20533   9.233   7.110   6.695
 5134SOL    HW120534   9.214   7.201   6.671
 5134SOL    HW220535   9.327   7.109   6.712
 5134SOL     MW20536   9.243   7.122   6.694
 5135SOL     OW20537   9.940   1.481   5.425
 5135SOL    HW120538  10.033   1.501   5.433
 5135SOL    HW220539   9.936   1.407   5.364
 5135SOL     MW20540   9.951   1.474   5.418
 5136SOL     OW20541   7.800   6.061   4.167
 5136SOL    HW120542   7.766   6.011   4.241
 5136SOL    HW220543   7.777   6.152   4.186
 5136SOL     MW20544   7.793   6.066   4.179
 5137SOL     OW20545   1.601   8.214   4.387
 5137SOL    HW120546   1.561   8.193   4.471
 5137SOL    HW220547   1.539   8.183   4.322
 5137SOL     MW20548   1.588   8.208   4.389
 5138SOL     OW20549   4.296   7.456   2.873
 5138SOL    HW120550   4.330   7.423   2.789
 5138SOL    HW220551   4.315   7.550   2.871
 5138SOL     MW20552   4.303   7.464   2.862
 5139SOL     OW20553   4.716   5.044   1.079
 5139SOL    HW120554   4.799   5.000   1.060
 5139SOL    HW220555   4.739   5.136   1.091
 5139SOL     MW20556   4.729   5.050   1.078
 5140SOL     OW20557   7.551   8.573   6.926
 5140SOL    HW120558   7.567   8.553   6.834
 5140SOL    HW220559   7.575   8.665   6.935
 5140SOL     MW20560   7.556   8.582   6.916
 5141SOL     OW20561   7.951   4.897   0.186
 5141SOL    HW120562   7.935   4.982   0.145
 5141SOL    HW220563   8.037   4.870   0.154
 5141SOL     MW20564   7.960   4.904   0.177
 5142SOL     OW20565   5.763   8.101   5.523
 5142SOL    HW120566   5.709   8.132   5.596
 5142SOL    HW220567   5.776   8.179   5.468
 5142SOL     MW20568   5.758   8.115   5.525
 5143SOL     OW20569   5.563   1.638   7.121
 5143SOL    HW120570   5.538   1.547   7.108
 5143SOL    HW220571   5.639   1.651   7.064
 5143SOL     MW20572   5.570   1.628   7.112
 5144SOL     OW20573   1.136   3.095  10.048
 5144SOL    HW120574   1.176   3.063   9.967
 5144SOL    HW220575   1.206   3.091  10.113
 5144SOL     MW20576   1.150   3.091  10.046
 5145SOL     OW20577   3.176   5.112   3.680
 5145SOL    HW120578   3.153   5.094   3.771
 5145SOL    HW220579   3.215   5.030   3.649
 5145SOL     MW20580   3.178   5.099   3.688
 5146SOL     OW20581   3.734   7.614   8.629
 5146SOL    HW120582   3.642   7.602   8.654
 5146SOL    HW220583   3.741   7.572   8.543
 5146SOL     MW20584   3.723   7.607   8.621
 5147SOL     OW20585   2.533   9.533   9.909
 5147SOL    HW120586   2.592   9.492   9.845
 5147SOL    HW220587   2.591   9.584   9.966
 5147SOL     MW20588   2.548   9.534   9.908
 5148SOL     OW20589   9.141   3.746   5.763
 5148SOL    HW120590   9.213   3.809   5.757
 5148SOL    HW220591   9.070   3.794   5.804
 5148SOL     MW20592   9.142   3.760   5.767
 5149SOL     OW20593   4.050   3.979   1.220
 5149SOL    HW120594   4.103   3.913   1.176
 5149SOL    HW220595   4.100   4.002   1.298
 5149SOL     MW20596   4.063   3.974   1.224
 5150SOL     OW20597   4.566   3.021   6.957
 5150SOL    HW120598   4.497   2.962   6.989
 5150SOL    HW220599   4.552   3.103   7.004
 5150SOL     MW20600   4.555   3.024   6.967
 5151SOL     OW20601   3.144   1.467   4.252
 5151SOL    HW120602   3.141   1.372   4.267
 5151SOL    HW220603   3.068   1.501   4.299
 5151SOL     MW20604   3.134   1.459   4.260
 5152SOL     OW20605   5.465   7.430   0.837
 5152SOL    HW120606   5.478   7.443   0.743
 5152SOL    HW220607   5.553   7.438   0.875
 5152SOL     MW20608   5.478   7.433   0.830
 5153SOL     OW20609   5.158   9.138   9.614
 5153SOL    HW120610   5.235   9.192   9.631
 5153SOL    HW220611   5.193   9.062   9.567
 5153SOL     MW20612   5.172   9.135   9.610
 5154SOL     OW20613   6.180   0.498   8.654
 5154SOL    HW120614   6.137   0.528   8.734
 5154SOL    HW220615   6.265   0.541   8.654
 5154SOL     MW20616   6.185   0.507   8.664
 5155SOL     OW20617   9.281   9.108   0.743
 5155SOL    HW120618   9.189   9.135   0.740
 5155SOL    HW220619   9.315   9.128   0.656
 5155SOL     MW20620   9.274   9.114   0.732
 5156SOL     OW20621   8.403   6.463   0.805
 5156SOL    HW120622   8.388   6.450   0.899
 5156SOL    HW220623   8.480   6.410   0.785
 5156SOL     MW20624   8.411   6.454   0.815
 5157SOL     OW20625   5.409  10.028   2.264
 5157SOL    HW120626   5.384  10.108   2.218
 5157SOL    HW220627   5.334  10.007   2.319
 5157SOL     MW20628   5.397  10.036   2.265
 5158SOL     OW20629   4.105   4.695   0.593
 5158SOL    HW120630   4.054   4.716   0.671
 5158SOL    HW220631   4.101   4.599   0.587
 5158SOL     MW20632   4.098   4.685   0.602
 5159SOL     OW20633   1.998   7.557   6.345
 5159SOL    HW120634   1.961   7.644   6.330
 5159SOL    HW220635   2.032   7.562   6.434
 5159SOL     MW20636   1.998   7.569   6.354
 5160SOL     OW20637   3.932   4.388   0.344
 5160SOL    HW120638   3.986   4.410   0.421
 5160SOL    HW220639   3.899   4.473   0.313
 5160SOL     MW20640   3.935   4.402   0.350
 5161SOL     OW20641   8.609   2.475   1.165
 5161SOL    HW120642   8.583   2.383   1.157
 5161SOL    HW220643   8.637   2.484   1.256
 5161SOL     MW20644   8.609   2.464   1.175
 5162SOL     OW20645   8.132   6.271   7.366
 5162SOL    HW120646   8.131   6.333   7.293
 5162SOL    HW220647   8.167   6.320   7.440
 5162SOL     MW20648   8.136   6.285   7.366
 5163SOL     OW20649   9.364   8.894   6.664
 5163SOL    HW120650   9.311   8.820   6.693
 5163SOL    HW220651   9.309   8.971   6.681
 5163SOL     MW20652   9.350   8.895   6.670
 5164SOL     OW20653   2.695   2.534   1.387
 5164SOL    HW120654   2.611   2.508   1.350
 5164SOL    HW220655   2.725   2.606   1.331
 5164SOL     MW20656   2.688   2.540   1.375
 5165SOL     OW20657   6.959   9.753   3.518
 5165SOL    HW120658   6.988   9.665   3.494
 5165SOL    HW220659   6.879   9.739   3.568
 5165SOL     MW20660   6.952   9.740   3.521
 5166SOL     OW20661   8.184   8.365   4.859
 5166SOL    HW120662   8.095   8.334   4.841
 5166SOL    HW220663   8.202   8.428   4.789
 5166SOL     MW20664   8.175   8.369   4.848
 5167SOL     OW20665   3.665   7.383   0.994
 5167SOL    HW120666   3.638   7.291   1.002
 5167SOL    HW220667   3.587   7.429   0.966
 5167SOL     MW20668   3.652   7.377   0.992
 5168SOL     OW20669   7.180   3.758   2.638
 5168SOL    HW120670   7.267   3.770   2.602
 5168SOL    HW220671   7.125   3.822   2.592
 5168SOL     MW20672   7.184   3.768   2.627
 5169SOL     OW20673   6.892   9.968   9.683
 5169SOL    HW120674   6.874  10.050   9.728
 5169SOL    HW220675   6.929   9.911   9.751
 5169SOL     MW20676   6.894   9.971   9.698
 5170SOL     OW20677   4.619   6.957   6.697
 5170SOL    HW120678   4.556   7.015   6.656
 5170SOL    HW220679   4.569   6.911   6.765
 5170SOL     MW20680   4.605   6.958   6.701
 5171SOL     OW20681   3.743   1.634   3.322
 5171SOL    HW120682   3.806   1.627   3.395
 5171SOL    HW220683   3.775   1.573   3.257
 5171SOL     MW20684   3.755   1.626   3.323
 5172SOL     OW20685   6.102   1.549   4.383
 5172SOL    HW120686   6.086   1.614   4.452
 5172SOL    HW220687   6.092   1.599   4.301
 5172SOL     MW20688   6.099   1.564   4.381
 5173SOL     OW20689   9.508   9.166   1.928
 5173SOL    HW120690   9.556   9.203   1.854
 5173SOL    HW220691   9.548   9.080   1.942
 5173SOL     MW20692   9.520   9.160   1.920
 5174SOL     OW20693   0.006   4.759   4.260
 5174SOL    HW120694  -0.061   4.720   4.317
 5174SOL    HW220695   0.073   4.790   4.320
 5174SOL     MW20696   0.006   4.758   4.275
 5175SOL     OW20697   6.800   7.069   7.878
 5175SOL    HW120698   6.710   7.077   7.910
 5175SOL    HW220699   6.845   7.145   7.915
 5175SOL     MW20700   6.794   7.080   7.887
 5176SOL     OW20701   7.091   7.290   9.767
 5176SOL    HW120702   7.133   7.322   9.847
 5176SOL    HW220703   7.001   7.272   9.793
 5176SOL     MW20704   7.085   7.292   9.781
 5177SOL     OW20705   8.736   1.852  10.141
 5177SOL    HW120706   8.753   1.912  10.068
 5177SOL    HW220707   8.747   1.765  10.104
 5177SOL     MW20708   8.739   1.849  10.127
 5178SOL     OW20709   7.831   7.681   3.319
 5178SOL    HW120710   7.829   7.730   3.237
 5178SOL    HW220711   7.917   7.699   3.356
 5178SOL     MW20712   7.842   7.690   3.313
 5179SOL     OW20713   6.478   4.331   9.023
 5179SOL    HW120714   6.476   4.236   9.018
 5179SOL    HW220715   6.488   4.360   8.932
 5179SOL     MW20716   6.479   4.323   9.011
 5180SOL     OW20717   1.344   6.735   0.634
 5180SOL    HW120718   1.291   6.670   0.588
 5180SOL    HW220719   1.351   6.701   0.724
 5180SOL     MW20720   1.338   6.722   0.640
 5181SOL     OW20721   6.155   3.024   5.810
 5181SOL    HW120722   6.215   3.057   5.742
 5181SOL    HW220723   6.069   3.052   5.781
 5181SOL     MW20724   6.152   3.032   5.797
 5182SOL     OW20725   6.498  10.091   0.810
 5182SOL    HW120726   6.459  10.126   0.890
 5182SOL    HW220727   6.477  10.155   0.742
 5182SOL     MW20728   6.491  10.104   0.811
 5183SOL     OW20729   6.911   4.604   2.255
 5183SOL    HW120730   6.998   4.580   2.287
 5183SOL    HW220731   6.907   4.699   2.264
 5183SOL     MW20732   6.921   4.613   2.260
 5184SOL     OW20733   4.961   0.802   6.856
 5184SOL    HW120734   4.987   0.811   6.947
 5184SOL    HW220735   4.866   0.815   6.856
 5184SOL     MW20736   4.952   0.805   6.867
 5185SOL     OW20737   4.738   7.899   7.073
 5185SOL    HW120738   4.811   7.882   7.134
 5185SOL    HW220739   4.696   7.813   7.063
 5185SOL     MW20740   4.742   7.886   7.080
 5186SOL     OW20741   9.202   4.078   0.446
 5186SOL    HW120742   9.107   4.075   0.457
 5186SOL    HW220743   9.222   4.171   0.437
 5186SOL     MW20744   9.193   4.089   0.446
 5187SOL     OW20745   2.779   8.673   2.443
 5187SOL    HW120746   2.856   8.621   2.468
 5187SOL    HW220747   2.794   8.695   2.351
 5187SOL     MW20748   2.791   8.669   2.434
 5188SOL     OW20749   7.844   5.505   5.507
 5188SOL    HW120750   7.876   5.416   5.519
 5188SOL    HW220751   7.848   5.544   5.594
 5188SOL     MW20752   7.849   5.499   5.520
 5189SOL     OW20753   0.119   2.131   4.657
 5189SOL    HW120754   0.163   2.128   4.742
 5189SOL    HW220755   0.184   2.095   4.596
 5189SOL     MW20756   0.133   2.126   4.660
 5190SOL     OW20757   9.846   9.106   1.888
 5190SOL    HW120758   9.933   9.105   1.927
 5190SOL    HW220759   9.792   9.054   1.948
 5190SOL     MW20760   9.850   9.099   1.901
 5191SOL     OW20761   4.502   4.838   3.529
 5191SOL    HW120762   4.408   4.826   3.543
 5191SOL    HW220763   4.508   4.916   3.474
 5191SOL     MW20764   4.491   4.846   3.524
 5192SOL     OW20765   0.054   6.421   6.104
 5192SOL    HW120766   0.085   6.447   6.191
 5192SOL    HW220767   0.031   6.328   6.114
 5192SOL     MW20768   0.055   6.412   6.116
 5193SOL     OW20769   8.185   8.482   2.570
 5193SOL    HW120770   8.176   8.573   2.542
 5193SOL    HW220771   8.217   8.436   2.493
 5193SOL     MW20772   8.188   8.488   2.557
 5194SOL     OW20773   8.403   6.870   3.014
 5194SOL    HW120774   8.385   6.948   2.962
 5194SOL    HW220775   8.428   6.904   3.100
 5194SOL     MW20776   8.404   6.884   3.018
 5195SOL     OW20777   8.223   3.177   6.846
 5195SOL    HW120778   8.263   3.123   6.779
 5195SOL    HW220779   8.262   3.147   6.928
 5195SOL     MW20780   8.233   3.166   6.848
 5196SOL     OW20781   8.466   7.733   4.972
 5196SOL    HW120782   8.450   7.826   4.964
 5196SOL    HW220783   8.398   7.702   5.032
 5196SOL     MW20784   8.456   7.741   4.979
 5197SOL     OW20785   7.243   0.847   5.249
 5197SOL    HW120786   7.300   0.915   5.212
 5197SOL    HW220787   7.294   0.766   5.241
 5197SOL     MW20788   7.257   0.845   5.243
 5198SOL     OW20789   7.712   8.956   2.479
 5198SOL    HW120790   7.629   8.912   2.463
 5198SOL    HW220791   7.690   9.031   2.535
 5198SOL     MW20792   7.699   8.960   2.484
 5199SOL     OW20793   9.469   8.964   8.560
 5199SOL    HW120794   9.431   9.051   8.546
 5199SOL    HW220795   9.398   8.912   8.597
 5199SOL     MW20796   9.455   8.969   8.563
 5200SOL     OW20797   4.301   2.334   3.526
 5200SOL    HW120798   4.271   2.371   3.443
 5200SOL    HW220799   4.341   2.251   3.502
 5200SOL     MW20800   4.302   2.328   3.513
 5201SOL     OW20801   0.066   3.655   3.979
 5201SOL    HW120802   0.001   3.604   3.931
 5201SOL    HW220803   0.015   3.719   4.029
 5201SOL     MW20804   0.051   3.657   3.979
 5202SOL     OW20805   2.296   9.315   1.341
 5202SOL    HW120806   2.224   9.259   1.373
 5202SOL    HW220807   2.259   9.360   1.265
 5202SOL     MW20808   2.282   9.313   1.335
 5203SOL     OW20809   0.367   1.004   5.484
 5203SOL    HW120810   0.410   1.089   5.482
 5203SOL    HW220811   0.433   0.944   5.448
 5203SOL     MW20812   0.381   1.007   5.480
 5204SOL     OW20813   2.304   7.873   4.606
 5204SOL    HW120814   2.302   7.963   4.572
 5204SOL    HW220815   2.366   7.876   4.679
 5204SOL     MW20816   2.312   7.885   4.611
 5205SOL     OW20817   3.934   9.007   6.073
 5205SOL    HW120818   3.864   8.950   6.040
 5205SOL    HW220819   3.953   8.974   6.161
 5205SOL     MW20820   3.927   8.996   6.080
 5206SOL     OW20821   6.306   1.060  -0.004
 5206SOL    HW120822   6.293   1.008   0.075
 5206SOL    HW220823   6.389   1.106   0.011
 5206SOL     MW20824   6.315   1.060   0.008
 5207SOL     OW20825   8.847   5.149   1.825
 5207SOL    HW120826   8.804   5.069   1.857
 5207SOL    HW220827   8.840   5.211   1.898
 5207SOL     MW20828   8.841   5.146   1.839
 5208SOL     OW20829   4.090   6.360   8.714
 5208SOL    HW120830   4.164   6.410   8.748
 5208SOL    HW220831   4.124   6.272   8.698
 5208SOL     MW20832   4.104   6.355   8.716
 5209SOL     OW20833   2.225   4.502   8.604
 5209SOL    HW120834   2.251   4.454   8.682
 5209SOL    HW220835   2.307   4.524   8.561
 5209SOL     MW20836   2.239   4.499   8.609
 5210SOL     OW20837   8.642   8.660   7.640
 5210SOL    HW120838   8.687   8.731   7.596
 5210SOL    HW220839   8.652   8.680   7.734
 5210SOL     MW20840   8.649   8.672   7.647
 5211SOL     OW20841   8.794   7.508   4.171
 5211SOL    HW120842   8.723   7.479   4.114
 5211SOL    HW220843   8.816   7.595   4.139
 5211SOL     MW20844   8.787   7.515   4.160
 5212SOL     OW20845   7.914   2.815   3.473
 5212SOL    HW120846   8.000   2.852   3.491
 5212SOL    HW220847   7.858   2.850   3.542
 5212SOL     MW20848   7.918   2.824   3.484
 5213SOL     OW20849   8.359   4.424   5.169
 5213SOL    HW120850   8.388   4.512   5.192
 5213SOL    HW220851   8.286   4.406   5.229
 5213SOL     MW20852   8.353   4.433   5.180
 5214SOL     OW20853   2.028   0.159   5.051
 5214SOL    HW120854   2.117   0.193   5.042
 5214SOL    HW220855   2.039   0.066   5.069
 5214SOL     MW20856   2.041   0.152   5.052
 5215SOL     OW20857   8.266  10.009   1.810
 5215SOL    HW120858   8.173  10.025   1.822
 5215SOL    HW220859   8.284   9.930   1.861
 5215SOL     MW20860   8.256  10.001   1.818
 5216SOL     OW20861   4.774   8.577   4.289
 5216SOL    HW120862   4.729   8.662   4.284
 5216SOL    HW220863   4.858   8.592   4.245
 5216SOL     MW20864   4.779   8.590   4.282
 5217SOL     OW20865   4.564   2.350   3.609
 5217SOL    HW120866   4.472   2.368   3.590
 5217SOL    HW220867   4.586   2.408   3.682
 5217SOL     MW20868   4.555   2.360   3.616
 5218SOL     OW20869   3.649   9.129   5.208
 5218SOL    HW120870   3.623   9.150   5.119
 5218SOL    HW220871   3.678   9.212   5.245
 5218SOL     MW20872   3.650   9.142   5.201
 5219SOL     OW20873   3.183   5.488   9.831
 5219SOL    HW120874   3.159   5.477   9.739
 5219SOL    HW220875   3.232   5.408   9.852
 5219SOL     MW20876   3.186   5.476   9.822
 5220SOL     OW20877   3.746   6.277   9.669
 5220SOL    HW120878   3.711   6.364   9.689
 5220SOL    HW220879   3.755   6.235   9.755
 5220SOL     MW20880   3.743   6.283   9.683
 5221SOL     OW20881   9.128   3.517   3.739
 5221SOL    HW120882   9.155   3.594   3.689
 5221SOL    HW220883   9.106   3.451   3.673
 5221SOL     MW20884   9.129   3.518   3.724
 5222SOL     OW20885   2.622   5.149   5.938
 5222SOL    HW120886   2.612   5.234   5.980
 5222SOL    HW220887   2.533   5.119   5.923
 5222SOL     MW20888   2.610   5.156   5.942
 5223SOL     OW20889   6.877   2.131   0.648
 5223SOL    HW120890   6.941   2.178   0.701
 5223SOL    HW220891   6.800   2.187   0.647
 5223SOL     MW20892   6.875   2.144   0.654
 5224SOL     OW20893   9.340   9.195   8.497
 5224SOL    HW120894   9.300   9.280   8.515
 5224SOL    HW220895   9.325   9.181   8.404
 5224SOL     MW20896   9.333   9.204   8.487
 5225SOL     OW20897   5.241   0.484   8.406
 5225SOL    HW120898   5.314   0.543   8.420
 5225SOL    HW220899   5.172   0.538   8.367
 5225SOL     MW20900   5.241   0.498   8.403
 5226SOL     OW20901   8.622   0.640   0.035
 5226SOL    HW120902   8.697   0.695   0.012
 5226SOL    HW220903   8.656   0.579   0.100
 5226SOL     MW20904   8.636   0.639   0.040
 5227SOL     OW20905   5.281   1.446   9.944
 5227SOL    HW120906   5.301   1.355   9.922
 5227SOL    HW220907   5.205   1.440  10.001
 5227SOL     MW20908   5.274   1.433   9.948
 5228SOL     OW20909   5.697   1.396   0.425
 5228SOL    HW120910   5.692   1.392   0.521
 5228SOL    HW220911   5.714   1.306   0.398
 5228SOL     MW20912   5.699   1.384   0.434
 5229SOL     OW20913   5.526   0.728   0.416
 5229SOL    HW120914   5.548   0.681   0.497
 5229SOL    HW220915   5.517   0.819   0.443
 5229SOL     MW20916   5.528   0.733   0.430
 5230SOL     OW20917   9.372   3.543   2.330
 5230SOL    HW120918   9.457   3.519   2.293
 5230SOL    HW220919   9.387   3.546   2.424
 5230SOL     MW20920   9.385   3.541   2.337
 5231SOL     OW20921   6.803   8.348   1.463
 5231SOL    HW120922   6.865   8.305   1.404
 5231SOL    HW220923   6.806   8.440   1.436
 5231SOL     MW20924   6.811   8.355   1.452
 5232SOL     OW20925   4.724   3.964   7.760
 5232SOL    HW120926   4.810   3.997   7.735
 5232SOL    HW220927   4.742   3.885   7.810
 5232SOL     MW20928   4.737   3.958   7.764
 5233SOL     OW20929   4.266   1.032   9.483
 5233SOL    HW120930   4.331   1.014   9.552
 5233SOL    HW220931   4.242   1.124   9.497
 5233SOL     MW20932   4.272   1.041   9.494
 5234SOL     OW20933   7.138   0.284   2.630
 5234SOL    HW120934   7.172   0.265   2.542
 5234SOL    HW220935   7.054   0.326   2.614
 5234SOL     MW20936   7.132   0.287   2.617
 5235SOL     OW20937  10.009   2.796   2.519
 5235SOL    HW120938   9.945   2.785   2.589
 5235SOL    HW220939   9.992   2.884   2.485
 5235SOL     MW20940   9.998   2.806   2.524
 5236SOL     OW20941   2.803   4.306   1.168
 5236SOL    HW120942   2.897   4.316   1.181
 5236SOL    HW220943   2.792   4.213   1.147
 5236SOL     MW20944   2.814   4.295   1.167
 5237SOL     OW20945   4.874   1.153   1.371
 5237SOL    HW120946   4.827   1.236   1.379
 5237SOL    HW220947   4.863   1.128   1.280
 5237SOL     MW20948   4.867   1.160   1.360
 5238SOL     OW20949   3.638   2.075   8.910
 5238SOL    HW120950   3.676   2.159   8.884
 5238SOL    HW220951   3.713   2.023   8.940
 5238SOL     MW20952   3.653   2.079   8.910
 5239SOL     OW20953   0.689   4.287   8.644
 5239SOL    HW120954   0.750   4.236   8.591
 5239SOL    HW220955   0.609   4.289   8.592
 5239SOL     MW20956   0.687   4.281   8.630
 5240SOL     OW20957   1.210   8.339   9.695
 5240SOL    HW120958   1.220   8.428   9.662
 5240SOL    HW220959   1.132   8.343   9.750
 5240SOL     MW20960   1.201   8.351   9.698
 5241SOL     OW20961   5.241   8.483  10.085
 5241SOL    HW120962   5.300   8.535  10.140
 5241SOL    HW220963   5.168   8.462  10.143
 5241SOL     MW20964   5.239   8.487  10.100
 5242SOL     OW20965   2.330   0.596   9.456
 5242SOL    HW120966   2.323   0.566   9.365
 5242SOL    HW220967   2.322   0.691   9.450
 5242SOL     MW20968   2.328   0.604   9.443
 5243SOL     OW20969   1.850   1.712   1.594
 5243SOL    HW120970   1.788   1.658   1.643
 5243SOL    HW220971   1.893   1.765   1.661
 5243SOL     MW20972   1.847   1.712   1.609
 5244SOL     OW20973   8.449   9.811   2.193
 5244SOL    HW120974   8.504   9.889   2.200
 5244SOL    HW220975   8.428   9.788   2.283
 5244SOL     MW20976   8.453   9.818   2.205
 5245SOL     OW20977   5.594   9.409   4.064
 5245SOL    HW120978   5.676   9.359   4.066
 5245SOL    HW220979   5.586   9.438   3.973
 5245SOL     MW20980   5.603   9.407   4.052
 5246SOL     OW20981   0.960   8.684   2.555
 5246SOL    HW120982   1.053   8.703   2.547
 5246SOL    HW220983   0.918   8.741   2.489
 5246SOL     MW20984   0.966   8.694   2.545
 5247SOL     OW20985   6.075   2.629   9.551
 5247SOL    HW120986   6.120   2.545   9.559
 5247SOL    HW220987   5.983   2.606   9.537
 5247SOL     MW20988   6.069   2.616   9.550
 5248SOL     OW20989   9.073   6.448   1.625
 5248SOL    HW120990   9.032   6.530   1.653
 5248SOL    HW220991   9.049   6.386   1.694
 5248SOL     MW20992   9.065   6.451   1.638
 5249SOL     OW20993   7.257   6.101   7.209
 5249SOL    HW120994   7.266   6.099   7.305
 5249SOL    HW220995   7.270   6.193   7.186
 5249SOL     MW20996   7.260   6.113   7.219
 5250SOL     OW20997   4.730   7.854   3.148
 5250SOL    HW120998   4.746   7.914   3.221
 5250SOL    HW220999   4.812   7.806   3.139
 5250SOL     MW21000   4.742   7.856   3.156
 5251SOL     OW21001   7.164   6.801   9.595
 5251SOL    HW121002   7.161   6.894   9.615
 5251SOL    HW221003   7.153   6.758   9.680
 5251SOL     MW21004   7.162   6.807   9.608
 5252SOL     OW21005   4.497   9.400   9.568
 5252SOL    HW121006   4.581   9.399   9.613
 5252SOL    HW221007   4.512   9.347   9.489
 5252SOL     MW21008   4.509   9.393   9.563
 5253SOL     OW21009   0.888   7.454   9.849
 5253SOL    HW121010   0.859   7.534   9.806
 5253SOL    HW221011   0.942   7.485   9.922
 5253SOL     MW21012   0.891   7.469   9.853
 5254SOL     OW21013   7.784  10.006   2.698
 5254SOL    HW121014   7.780  10.017   2.793
 5254SOL    HW221015   7.873  10.029   2.674
 5254SOL     MW21016   7.795  10.010   2.707
 5255SOL     OW21017   8.291   0.146   1.440
 5255SOL    HW121018   8.213   0.092   1.431
 5255SOL    HW221019   8.355   0.106   1.382
 5255SOL     MW21020   8.289   0.134   1.431
 5256SOL     OW21021   4.442   3.353   9.361
 5256SOL    HW121022   4.448   3.431   9.307
 5256SOL    HW221023   4.500   3.370   9.435
 5256SOL     MW21024   4.450   3.365   9.363
 5257SOL     OW21025   7.047   0.137   4.169
 5257SOL    HW121026   6.962   0.093   4.170
 5257SOL    HW221027   7.084   0.118   4.083
 5257SOL     MW21028   7.041   0.129   4.158
 5258SOL     OW21029   8.631   7.748   0.415
 5258SOL    HW121030   8.700   7.813   0.429
 5258SOL    HW221031   8.564   7.770   0.479
 5258SOL     MW21032   8.632   7.759   0.425
 5259SOL     OW21033   6.708   2.998   6.710
 5259SOL    HW121034   6.666   3.084   6.716
 5259SOL    HW221035   6.768   2.996   6.785
 5259SOL     MW21036   6.710   3.009   6.720
 5260SOL     OW21037   5.523   0.943   3.701
 5260SOL    HW121038   5.481   0.859   3.681
 5260SOL    HW221039   5.547   0.979   3.616
 5260SOL     MW21040   5.521   0.937   3.688
 5261SOL     OW21041   1.585   2.916   5.897
 5261SOL    HW121042   1.609   2.852   5.964
 5261SOL    HW221043   1.494   2.895   5.876
 5261SOL     MW21044   1.577   2.905   5.903
 5262SOL     OW21045   5.668   4.106   4.731
 5262SOL    HW121046   5.623   4.026   4.706
 5262SOL    HW221047   5.716   4.132   4.652
 5262SOL     MW21048   5.669   4.099   4.718
 5263SOL     OW21049   4.931   3.958   1.414
 5263SOL    HW121050   4.861   3.895   1.432
 5263SOL    HW221051   4.922   4.024   1.483
 5263SOL     MW21052   4.921   3.958   1.426
 5264SOL     OW21053   7.875   3.276   6.634
 5264SOL    HW121054   7.875   3.197   6.689
 5264SOL    HW221055   7.955   3.322   6.660
 5264SOL     MW21056   7.885   3.272   6.645
 5265SOL     OW21057   1.130   1.952   2.351
 5265SOL    HW121058   1.183   1.876   2.376
 5265SOL    HW221059   1.091   1.926   2.267
 5265SOL     MW21060   1.132   1.939   2.343
 5266SOL     OW21061   7.673   4.796   3.223
 5266SOL    HW121062   7.626   4.754   3.151
 5266SOL    HW221063   7.762   4.763   3.217
 5266SOL     MW21064   7.678   4.787   3.213
 5267SOL     OW21065  10.122   5.951   9.487
 5267SOL    HW121066  10.124   5.857   9.468
 5267SOL    HW221067  10.058   5.960   9.557
 5267SOL     MW21068  10.114   5.940   9.494
 5268SOL     OW21069   6.331   6.082   2.024
 5268SOL    HW121070   6.297   6.153   2.078
 5268SOL    HW221071   6.367   6.126   1.947
 5268SOL     MW21072   6.331   6.097   2.021
 5269SOL     OW21073   4.524   7.403   3.017
 5269SOL    HW121074   4.542   7.483   3.067
 5269SOL    HW221075   4.440   7.419   2.975
 5269SOL     MW21076   4.516   7.415   3.018
 5270SOL     OW21077   7.672   2.706   4.116
 5270SOL    HW121078   7.645   2.751   4.196
 5270SOL    HW221079   7.668   2.613   4.138
 5270SOL     MW21080   7.668   2.700   4.129
 5271SOL     OW21081   5.344   4.743   8.202
 5271SOL    HW121082   5.378   4.830   8.222
 5271SOL    HW221083   5.421   4.688   8.195
 5271SOL     MW21084   5.358   4.747   8.204
 5272SOL     OW21085   3.035  10.124   2.496
 5272SOL    HW121086   2.983  10.125   2.415
 5272SOL    HW221087   3.066  10.034   2.502
 5272SOL     MW21088   3.032  10.112   2.486
 5273SOL     OW21089   5.489   4.734   4.521
 5273SOL    HW121090   5.498   4.731   4.617
 5273SOL    HW221091   5.497   4.826   4.499
 5273SOL     MW21092   5.491   4.745   4.531
 5274SOL     OW21093   0.126   3.205   1.523
 5274SOL    HW121094   0.085   3.184   1.607
 5274SOL    HW221095   0.112   3.299   1.512
 5274SOL     MW21096   0.119   3.214   1.532
 5275SOL     OW21097   1.009   1.222   0.465
 5275SOL    HW121098   1.002   1.306   0.419
 5275SOL    HW221099   0.952   1.232   0.541
 5275SOL     MW21100   1.001   1.234   0.469
 5276SOL     OW21101   3.260   5.960   1.509
 5276SOL    HW121102   3.323   5.925   1.446
 5276SOL    HW221103   3.314   6.000   1.577
 5276SOL     MW21104   3.275   5.960   1.510
 5277SOL     OW21105   9.431   2.104   3.359
 5277SOL    HW121106   9.509   2.093   3.304
 5277SOL    HW221107   9.465   2.106   3.448
 5277SOL     MW21108   9.445   2.103   3.363
 5278SOL     OW21109   3.688   2.271   2.983
 5278SOL    HW121110   3.615   2.304   3.036
 5278SOL    HW221111   3.766   2.294   3.034
 5278SOL     MW21112   3.689   2.278   2.996
 5279SOL     OW21113  10.077   0.177   8.402
 5279SOL    HW121114  10.124   0.211   8.325
 5279SOL    HW221115  10.045   0.256   8.446
 5279SOL     MW21116  10.079   0.192   8.398
 5280SOL     OW21117   2.299   7.530   2.070
 5280SOL    HW121118   2.216   7.553   2.029
 5280SOL    HW221119   2.280   7.454   2.124
 5280SOL     MW21120   2.286   7.523   2.072
 5281SOL     OW21121   9.712   4.411   1.965
 5281SOL    HW121122   9.716   4.500   1.999
 5281SOL    HW221123   9.788   4.367   2.004
 5281SOL     MW21124   9.723   4.416   1.974
 5282SOL     OW21125   0.084   9.834   8.429
 5282SOL    HW121126   0.056   9.779   8.355
 5282SOL    HW221127   0.036   9.916   8.417
 5282SOL     MW21128   0.074   9.837   8.418
 5283SOL     OW21129   6.487   8.239   1.184
 5283SOL    HW121130   6.420   8.307   1.194
 5283SOL    HW221131   6.441   8.165   1.146
 5283SOL     MW21132   6.473   8.238   1.180
 5284SOL     OW21133   4.456   1.914   3.941
 5284SOL    HW121134   4.446   1.991   3.997
 5284SOL    HW221135   4.476   1.843   4.002
 5284SOL     MW21136   4.457   1.915   3.956
 5285SOL     OW21137   3.352   1.629   4.345
 5285SOL    HW121138   3.276   1.576   4.321
 5285SOL    HW221139   3.418   1.608   4.280
 5285SOL     MW21140   3.351   1.620   4.334
 5286SOL     OW21141   6.556   2.821   6.563
 5286SOL    HW121142   6.613   2.876   6.617
 5286SOL    HW221143   6.489   2.881   6.529
 5286SOL     MW21144   6.555   2.836   6.566
 5287SOL     OW21145   8.741   7.327   8.045
 5287SOL    HW121146   8.765   7.385   8.117
 5287SOL    HW221147   8.668   7.373   8.002
 5287SOL     MW21148   8.734   7.341   8.049
 5288SOL     OW21149   4.713   3.177   6.783
 5288SOL    HW121150   4.669   3.101   6.823
 5288SOL    HW221151   4.642   3.225   6.740
 5288SOL     MW21152   4.698   3.173   6.782
 5289SOL     OW21153   3.051   8.782   1.801
 5289SOL    HW121154   2.963   8.819   1.804
 5289SOL    HW221155   3.103   8.849   1.756
 5289SOL     MW21156   3.047   8.795   1.795
 5290SOL     OW21157   8.090   0.794   1.248
 5290SOL    HW121158   8.113   0.731   1.317
 5290SOL    HW221159   8.161   0.858   1.249
 5290SOL     MW21160   8.102   0.794   1.257
 5291SOL     OW21161   8.023   4.161   3.595
 5291SOL    HW121162   7.988   4.079   3.561
 5291SOL    HW221163   8.007   4.157   3.689
 5291SOL     MW21164   8.016   4.150   3.602
 5292SOL     OW21165   8.438   5.956   6.921
 5292SOL    HW121166   8.509   6.000   6.874
 5292SOL    HW221167   8.448   5.983   7.012
 5292SOL     MW21168   8.448   5.965   6.926
 5293SOL     OW21169   0.422   9.643   6.155
 5293SOL    HW121170   0.507   9.640   6.199
 5293SOL    HW221171   0.427   9.717   6.095
 5293SOL     MW21172   0.433   9.652   6.153
 5294SOL     OW21173   9.926   8.691   6.138
 5294SOL    HW121174   9.863   8.751   6.177
 5294SOL    HW221175   9.998   8.686   6.201
 5294SOL     MW21176   9.927   8.698   6.151
 5295SOL     OW21177   7.289   7.865   3.493
 5295SOL    HW121178   7.336   7.935   3.448
 5295SOL    HW221179   7.201   7.901   3.508
 5295SOL     MW21180   7.284   7.879   3.490
 5296SOL     OW21181   3.598   7.240   5.162
 5296SOL    HW121182   3.518   7.192   5.186
 5296SOL    HW221183   3.579   7.331   5.184
 5296SOL     MW21184   3.585   7.245   5.168
 5297SOL     OW21185   6.768   9.961   3.981
 5297SOL    HW121186   6.698   9.939   3.920
 5297SOL    HW221187   6.841   9.905   3.954
 5297SOL     MW21188   6.768   9.951   3.970
 5298SOL     OW21189   2.159   7.370   2.469
 5298SOL    HW121190   2.201   7.357   2.383
 5298SOL    HW221191   2.067   7.350   2.453
 5298SOL     MW21192   2.153   7.366   2.456
 5299SOL     OW21193   3.536   7.501   5.232
 5299SOL    HW121194   3.598   7.551   5.284
 5299SOL    HW221195   3.475   7.566   5.196
 5299SOL     MW21196   3.536   7.515   5.234
 5300SOL     OW21197   1.811  10.156   5.435
 5300SOL    HW121198   1.884  10.095   5.432
 5300SOL    HW221199   1.805  10.191   5.346
 5300SOL     MW21200   1.819  10.153   5.423
 5301SOL     OW21201   0.318   2.190   5.291
 5301SOL    HW121202   0.334   2.113   5.346
 5301SOL    HW221203   0.238   2.168   5.243
 5301SOL     MW21204   0.310   2.177   5.292
 5302SOL     OW21205   7.330   5.034   8.889
 5302SOL    HW121206   7.248   5.070   8.924
 5302SOL    HW221207   7.303   4.975   8.819
 5302SOL     MW21208   7.316   5.031   8.884
 5303SOL     OW21209   9.690   1.686   6.577
 5303SOL    HW121210   9.635   1.763   6.593
 5303SOL    HW221211   9.778   1.714   6.605
 5303SOL     MW21212   9.694   1.700   6.583
 5304SOL     OW21213   7.100   5.355   6.768
 5304SOL    HW121214   7.102   5.260   6.757
 5304SOL    HW221215   7.106   5.368   6.862
 5304SOL     MW21216   7.101   5.344   6.778
 5305SOL     OW21217   6.280   8.418   1.245
 5305SOL    HW121218   6.299   8.396   1.336
 5305SOL    HW221219   6.192   8.384   1.230
 5305SOL     MW21220   6.271   8.411   1.255
 5306SOL     OW21221   6.875   9.742   4.570
 5306SOL    HW121222   6.951   9.785   4.533
 5306SOL    HW221223   6.907   9.702   4.651
 5306SOL     MW21224   6.889   9.742   4.576
 5307SOL     OW21225   7.400   5.921   9.315
 5307SOL    HW121226   7.468   5.854   9.323
 5307SOL    HW221227   7.445   6.004   9.330
 5307SOL     MW21228   7.414   5.923   9.318
 5308SOL     OW21229   0.731   2.629   6.782
 5308SOL    HW121230   0.696   2.546   6.748
 5308SOL    HW221231   0.696   2.695   6.722
 5308SOL     MW21232   0.722   2.627   6.770
 5309SOL     OW21233   0.435   8.850   4.847
 5309SOL    HW121234   0.457   8.759   4.830
 5309SOL    HW221235   0.409   8.885   4.761
 5309SOL     MW21236   0.435   8.843   4.834
 5310SOL     OW21237   4.176   6.522   7.264
 5310SOL    HW121238   4.227   6.478   7.196
 5310SOL    HW221239   4.176   6.461   7.337
 5310SOL     MW21240   4.183   6.509   7.264
 5311SOL     OW21241   6.413   0.133   0.645
 5311SOL    HW121242   6.443   0.205   0.589
 5311SOL    HW221243   6.351   0.173   0.705
 5311SOL     MW21244   6.409   0.147   0.645
 5312SOL     OW21245   3.935   2.606   3.998
 5312SOL    HW121246   3.840   2.619   4.000
 5312SOL    HW221247   3.955   2.568   4.084
 5312SOL     MW21248   3.925   2.603   4.010
 5313SOL     OW21249   6.478   7.027   3.678
 5313SOL    HW121250   6.432   7.054   3.599
 5313SOL    HW221251   6.453   6.936   3.691
 5313SOL     MW21252   6.469   7.019   3.670
 5314SOL     OW21253   7.272   2.771   9.890
 5314SOL    HW121254   7.326   2.713   9.836
 5314SOL    HW221255   7.186   2.729   9.890
 5314SOL     MW21256   7.268   2.758   9.883
 5315SOL     OW21257   2.523   5.301   5.223
 5315SOL    HW121258   2.485   5.379   5.262
 5315SOL    HW221259   2.526   5.237   5.294
 5315SOL     MW21260   2.518   5.302   5.237
 5316SOL     OW21261   6.077   2.163   5.495
 5316SOL    HW121262   6.070   2.228   5.565
 5316SOL    HW221263   6.122   2.089   5.536
 5316SOL     MW21264   6.082   2.162   5.509
 5317SOL     OW21265   1.949   4.003   9.161
 5317SOL    HW121266   2.036   3.967   9.175
 5317SOL    HW221267   1.920   3.964   9.078
 5317SOL     MW21268   1.956   3.993   9.152
 5318SOL     OW21269   8.720   4.773   7.446
 5318SOL    HW121270   8.775   4.776   7.368
 5318SOL    HW221271   8.681   4.861   7.451
 5318SOL     MW21272   8.722   4.785   7.436
 5319SOL     OW21273   2.017   8.572   3.361
 5319SOL    HW121274   2.040   8.507   3.427
 5319SOL    HW221275   2.084   8.563   3.293
 5319SOL     MW21276   2.028   8.563   3.361
 5320SOL     OW21277   9.315   7.663   1.738
 5320SOL    HW121278   9.293   7.620   1.655
 5320SOL    HW221279   9.241   7.645   1.795
 5320SOL     MW21280   9.303   7.655   1.735
 5321SOL     OW21281   4.066   8.809  10.160
 5321SOL    HW121282   4.146   8.807  10.107
 5321SOL    HW221283   4.041   8.717  10.169
 5321SOL     MW21284   4.073   8.797  10.154
 5322SOL     OW21285   1.420   5.175   3.560
 5322SOL    HW121286   1.388   5.242   3.499
 5322SOL    HW221287   1.371   5.096   3.537
 5322SOL     MW21288   1.410   5.174   3.549
 5323SOL     OW21289   2.068   8.051   9.157
 5323SOL    HW121290   2.028   8.134   9.131
 5323SOL    HW221291   2.041   8.038   9.248
 5323SOL     MW21292   2.060   8.060   9.165
 5324SOL     OW21293   5.600   5.587   7.209
 5324SOL    HW121294   5.598   5.655   7.276
 5324SOL    HW221295   5.650   5.516   7.249
 5324SOL     MW21296   5.606   5.586   7.223
 5325SOL     OW21297   6.915   5.456   2.246
 5325SOL    HW121298   7.006   5.486   2.243
 5325SOL    HW221299   6.868   5.526   2.291
 5325SOL     MW21300   6.921   5.469   2.251
 5326SOL     OW21301   9.456   2.185   1.233
 5326SOL    HW121302   9.483   2.244   1.303
 5326SOL    HW221303   9.532   2.180   1.175
 5326SOL     MW21304   9.469   2.192   1.235
 5327SOL     OW21305   6.143  10.100   9.155
 5327SOL    HW121306   6.237  10.088   9.146
 5327SOL    HW221307   6.105  10.028   9.104
 5327SOL     MW21308   6.150  10.089   9.147
 5328SOL     OW21309   3.476   2.825   8.045
 5328SOL    HW121310   3.483   2.789   8.134
 5328SOL    HW221311   3.384   2.849   8.037
 5328SOL     MW21312   3.465   2.824   8.056
 5329SOL     OW21313   9.234   3.959   8.139
 5329SOL    HW121314   9.280   3.993   8.216
 5329SOL    HW221315   9.151   4.006   8.138
 5329SOL     MW21316   9.230   3.969   8.149
 5330SOL     OW21317   9.314   2.502   4.608
 5330SOL    HW121318   9.354   2.423   4.645
 5330SOL    HW221319   9.299   2.558   4.685
 5330SOL     MW21320   9.318   2.499   4.623
 5331SOL     OW21321   9.720   8.367   9.034
 5331SOL    HW121322   9.635   8.327   9.053
 5331SOL    HW221323   9.745   8.411   9.115
 5331SOL     MW21324   9.713   8.367   9.047
 5332SOL     OW21325   3.107   9.662   5.695
 5332SOL    HW121326   3.046   9.597   5.661
 5332SOL    HW221327   3.132   9.715   5.619
 5332SOL     MW21328   3.102   9.661   5.681
 5333SOL     OW21329   5.374   2.954   5.687
 5333SOL    HW121330   5.334   3.021   5.742
 5333SOL    HW221331   5.452   2.926   5.736
 5333SOL     MW21332   5.379   2.959   5.701
 5334SOL     OW21333   2.452   8.987   7.274
 5334SOL    HW121334   2.537   8.979   7.231
 5334SOL    HW221335   2.433   8.900   7.308
 5334SOL     MW21336   2.460   8.975   7.273
 5335SOL     OW21337   4.068   9.038   0.467
 5335SOL    HW121338   4.073   8.993   0.383
 5335SOL    HW221339   4.060   8.968   0.532
 5335SOL     MW21340   4.068   9.023   0.465
 5336SOL     OW21341   3.065   7.471   7.663
 5336SOL    HW121342   3.155   7.438   7.660
 5336SOL    HW221343   3.068   7.544   7.724
 5336SOL     MW21344   3.077   7.476   7.670
 5337SOL     OW21345   8.678   7.050   8.052
 5337SOL    HW121346   8.742   7.045   7.982
 5337SOL    HW221347   8.675   7.143   8.076
 5337SOL     MW21348   8.686   7.061   8.046
 5338SOL     OW21349   0.480   5.702   5.630
 5338SOL    HW121350   0.471   5.608   5.639
 5338SOL    HW221351   0.405   5.738   5.678
 5338SOL     MW21352   0.469   5.695   5.637
 5339SOL     OW21353   1.146   3.773   0.077
 5339SOL    HW121354   1.192   3.702   0.121
 5339SOL    HW221355   1.206   3.802   0.009
 5339SOL     MW21356   1.159   3.768   0.074
 5340SOL     OW21357   0.313   3.939   2.583
 5340SOL    HW121358   0.271   3.859   2.550
 5340SOL    HW221359   0.389   3.951   2.527
 5340SOL     MW21360   0.317   3.930   2.572
 5341SOL     OW21361   7.169   2.754   8.287
 5341SOL    HW121362   7.127   2.823   8.339
 5341SOL    HW221363   7.261   2.755   8.315
 5341SOL     MW21364   7.176   2.763   8.297
 5342SOL     OW21365   2.684   1.002   3.617
 5342SOL    HW121366   2.621   0.956   3.672
 5342SOL    HW221367   2.657   0.983   3.527
 5342SOL     MW21368   2.673   0.994   3.612
 5343SOL     OW21369   3.449   8.074   4.366
 5343SOL    HW121370   3.465   8.067   4.460
 5343SOL    HW221371   3.501   8.150   4.338
 5343SOL     MW21372   3.457   8.083   4.374
 5344SOL     OW21373   8.085   3.890   0.967
 5344SOL    HW121374   8.005   3.838   0.973
 5344SOL    HW221375   8.071   3.963   1.028
 5344SOL     MW21376   8.073   3.893   0.975
 5345SOL     OW21377   2.937   9.482   5.575
 5345SOL    HW121378   2.957   9.395   5.541
 5345SOL    HW221379   2.847   9.500   5.546
 5345SOL     MW21380   2.928   9.474   5.567
 5346SOL     OW21381   7.175   6.042   2.339
 5346SOL    HW121382   7.121   6.060   2.416
 5346SOL    HW221383   7.134   6.091   2.268
 5346SOL     MW21384   7.163   6.050   2.340
 5347SOL     OW21385   3.022   2.684   8.040
 5347SOL    HW121386   2.954   2.699   8.106
 5347SOL    HW221387   3.043   2.591   8.047
 5347SOL     MW21388   3.016   2.674   8.049
 5348SOL     OW21389   8.968   6.021   8.739
 5348SOL    HW121390   8.900   5.980   8.684
 5348SOL    HW221391   8.944   5.998   8.828
 5348SOL     MW21392   8.956   6.013   8.743
 5349SOL     OW21393   2.781   9.714   8.177
 5349SOL    HW121394   2.817   9.666   8.102
 5349SOL    HW221395   2.837   9.689   8.251
 5349SOL     MW21396   2.793   9.704   8.177
 5350SOL     OW21397   6.676  10.065   1.926
 5350SOL    HW121398   6.762  10.101   1.945
 5350SOL    HW221399   6.692   9.999   1.858
 5350SOL     MW21400   6.689  10.061   1.920
 5351SOL     OW21401   7.104   0.359   1.053
 5351SOL    HW121402   7.136   0.439   1.012
 5351SOL    HW221403   7.092   0.298   0.981
 5351SOL     MW21404   7.106   0.362   1.039
 5352SOL     OW21405   1.937   9.464   6.799
 5352SOL    HW121406   1.974   9.542   6.757
 5352SOL    HW221407   1.843   9.481   6.801
 5352SOL     MW21408   1.930   9.476   6.794
 5353SOL     OW21409   0.405   2.426   6.510
 5353SOL    HW121410   0.367   2.354   6.460
 5353SOL    HW221411   0.363   2.504   6.475
 5353SOL     MW21412   0.395   2.427   6.500
 5354SOL     OW21413   5.992   9.050   8.396
 5354SOL    HW121414   5.995   8.998   8.316
 5354SOL    HW221415   6.084   9.061   8.422
 5354SOL     MW21416   6.004   9.044   8.389
 5355SOL     OW21417   0.660   7.197   3.926
 5355SOL    HW121418   0.708   7.273   3.957
 5355SOL    HW221419   0.709   7.167   3.849
 5355SOL     MW21420   0.673   7.203   3.920
 5356SOL     OW21421   1.565   3.105   9.470
 5356SOL    HW121422   1.636   3.164   9.494
 5356SOL    HW221423   1.528   3.142   9.390
 5356SOL     MW21424   1.569   3.117   9.463
 5357SOL     OW21425   7.634   1.900   3.991
 5357SOL    HW121426   7.679   1.984   3.984
 5357SOL    HW221427   7.543   1.923   4.013
 5357SOL     MW21428   7.628   1.913   3.993
 5358SOL     OW21429   1.183   1.063   0.610
 5358SOL    HW121430   1.136   1.120   0.549
 5358SOL    HW221431   1.114   1.017   0.658
 5358SOL     MW21432   1.168   1.064   0.608
 5359SOL     OW21433   2.385   4.134   2.096
 5359SOL    HW121434   2.395   4.225   2.126
 5359SOL    HW221435   2.469   4.093   2.114
 5359SOL     MW21436   2.397   4.141   2.102
 5360SOL     OW21437   8.785   5.981   3.416
 5360SOL    HW121438   8.714   6.022   3.466
 5360SOL    HW221439   8.768   6.005   3.325
 5360SOL     MW21440   8.774   5.989   3.411
 5361SOL     OW21441   3.808   3.902   1.310
 5361SOL    HW121442   3.797   3.815   1.272
 5361SOL    HW221443   3.890   3.934   1.272
 5361SOL     MW21444   3.817   3.895   1.300
 5362SOL     OW21445   7.578   6.730   5.043
 5362SOL    HW121446   7.528   6.723   5.124
 5362SOL    HW221447   7.521   6.780   4.985
 5362SOL     MW21448   7.565   6.736   5.046
 5363SOL     OW21449   4.342  10.132   6.447
 5363SOL    HW121450   4.374  10.046   6.422
 5363SOL    HW221451   4.315  10.123   6.538
 5363SOL     MW21452   4.343  10.120   6.455
 5364SOL     OW21453   8.420   5.607   2.037
 5364SOL    HW121454   8.343   5.556   2.058
 5364SOL    HW221455   8.389   5.698   2.033
 5364SOL     MW21456   8.406   5.612   2.039
 5365SOL     OW21457   6.123   4.242   7.162
 5365SOL    HW121458   6.048   4.189   7.187
 5365SOL    HW221459   6.142   4.216   7.072
 5365SOL     MW21460   6.116   4.232   7.154
 5366SOL     OW21461   3.318   9.573   2.859
 5366SOL    HW121462   3.409   9.593   2.879
 5366SOL    HW221463   3.277   9.558   2.944
 5366SOL     MW21464   3.324   9.573   2.873
 5367SOL     OW21465   8.113   3.558   7.472
 5367SOL    HW121466   8.050   3.489   7.492
 5367SOL    HW221467   8.070   3.639   7.499
 5367SOL     MW21468   8.100   3.559   7.478
 5368SOL     OW21469   3.076   0.254   4.974
 5368SOL    HW121470   3.025   0.316   5.027
 5368SOL    HW221471   3.021   0.237   4.897
 5368SOL     MW21472   3.062   0.260   4.971
 5369SOL     OW21473   6.383   5.277   9.775
 5369SOL    HW121474   6.306   5.322   9.742
 5369SOL    HW221475   6.456   5.338   9.761
 5369SOL     MW21476   6.383   5.291   9.769
 5370SOL     OW21477   2.433   5.857   5.877
 5370SOL    HW121478   2.355   5.910   5.891
 5370SOL    HW221479   2.498   5.894   5.936
 5370SOL     MW21480   2.431   5.868   5.886
 5371SOL     OW21481   5.645   7.125   8.573
 5371SOL    HW121482   5.608   7.038   8.558
 5371SOL    HW221483   5.635   7.139   8.667
 5371SOL     MW21484   5.639   7.116   8.584
 5372SOL     OW21485   7.339   2.123   7.637
 5372SOL    HW121486   7.299   2.048   7.592
 5372SOL    HW221487   7.265   2.169   7.677
 5372SOL     MW21488   7.324   2.119   7.637
 5373SOL     OW21489   6.517   4.296   2.170
 5373SOL    HW121490   6.587   4.337   2.221
 5373SOL    HW221491   6.471   4.369   2.129
 5373SOL     MW21492   6.520   4.310   2.171
 5374SOL     OW21493   1.578   1.158   8.409
 5374SOL    HW121494   1.490   1.123   8.399
 5374SOL    HW221495   1.629   1.086   8.445
 5374SOL     MW21496   1.573   1.145   8.412
 5375SOL     OW21497   5.909   7.918   6.881
 5375SOL    HW121498   5.897   7.829   6.848
 5375SOL    HW221499   5.989   7.949   6.837
 5375SOL     MW21500   5.918   7.911   6.871
 5376SOL     OW21501   1.687   4.849   6.101
 5376SOL    HW121502   1.747   4.894   6.041
 5376SOL    HW221503   1.678   4.761   6.065
 5376SOL     MW21504   1.693   4.843   6.088
 5377SOL     OW21505   1.484   5.132   4.948
 5377SOL    HW121506   1.402   5.153   4.902
 5377SOL    HW221507   1.459   5.070   5.016
 5377SOL     MW21508   1.470   5.127   4.950
 5378SOL     OW21509   2.879   7.992   3.899
 5378SOL    HW121510   2.844   7.918   3.849
 5378SOL    HW221511   2.825   7.996   3.978
 5378SOL     MW21512   2.868   7.983   3.903
 5379SOL     OW21513   9.517   4.112   8.970
 5379SOL    HW121514   9.590   4.091   8.912
 5379SOL    HW221515   9.498   4.030   9.016
 5379SOL     MW21516   9.524   4.099   8.968
 5380SOL     OW21517   2.792   8.125   2.341
 5380SOL    HW121518   2.719   8.092   2.288
 5380SOL    HW221519   2.845   8.047   2.359
 5380SOL     MW21520   2.790   8.111   2.336
 5381SOL     OW21521   4.838   8.329   1.086
 5381SOL    HW121522   4.816   8.257   1.146
 5381SOL    HW221523   4.831   8.291   0.999
 5381SOL     MW21524   4.835   8.315   1.083
 5382SOL     OW21525   2.926   5.651   1.348
 5382SOL    HW121526   2.925   5.557   1.364
 5382SOL    HW221527   2.834   5.675   1.341
 5382SOL     MW21528   2.914   5.642   1.349
 5383SOL     OW21529   2.766   9.315   0.753
 5383SOL    HW121530   2.738   9.225   0.769
 5383SOL    HW221531   2.704   9.347   0.687
 5383SOL     MW21532   2.754   9.307   0.746
 5384SOL     OW21533   6.725   5.570   7.288
 5384SOL    HW121534   6.793   5.582   7.222
 5384SOL    HW221535   6.654   5.525   7.240
 5384SOL     MW21536   6.724   5.566   7.273
 5385SOL     OW21537   4.578   2.984   0.061
 5385SOL    HW121538   4.669   2.970   0.089
 5385SOL    HW221539   4.534   3.015   0.140
 5385SOL     MW21540   4.584   2.986   0.075
 5386SOL     OW21541   7.869   7.485   5.964
 5386SOL    HW121542   7.963   7.471   5.963
 5386SOL    HW221543   7.836   7.418   6.024
 5386SOL     MW21544   7.877   7.475   5.972
 5387SOL     OW21545   4.637   0.854   6.906
 5387SOL    HW121546   4.572   0.834   6.972
 5387SOL    HW221547   4.600   0.928   6.857
 5387SOL     MW21548   4.624   0.861   6.908
 5388SOL     OW21549   3.039   3.747   7.094
 5388SOL    HW121550   3.078   3.834   7.098
 5388SOL    HW221551   3.045   3.722   7.002
 5388SOL     MW21552   3.045   3.755   7.083
 5389SOL     OW21553   1.499   5.136   9.274
 5389SOL    HW121554   1.513   5.085   9.353
 5389SOL    HW221555   1.514   5.075   9.202
 5389SOL     MW21556   1.502   5.122   9.275
 5390SOL     OW21557   6.611   4.058   9.697
 5390SOL    HW121558   6.608   4.119   9.623
 5390SOL    HW221559   6.645   4.110   9.769
 5390SOL     MW21560   6.615   4.072   9.697
 5391SOL     OW21561   6.988   4.653   4.934
 5391SOL    HW121562   6.914   4.616   4.886
 5391SOL    HW221563   7.037   4.702   4.868
 5391SOL     MW21564   6.985   4.655   4.919
 5392SOL     OW21565   6.618   3.099   8.110
 5392SOL    HW121566   6.663   3.178   8.141
 5392SOL    HW221567   6.565   3.129   8.036
 5392SOL     MW21568   6.617   3.113   8.104
 5393SOL     OW21569   1.895   3.458   3.947
 5393SOL    HW121570   1.902   3.497   4.034
 5393SOL    HW221571   1.961   3.504   3.895
 5393SOL     MW21572   1.904   3.469   3.952
 5394SOL     OW21573   9.421   1.877   1.556
 5394SOL    HW121574   9.465   1.816   1.496
 5394SOL    HW221575   9.402   1.825   1.634
 5394SOL     MW21576   9.424   1.863   1.558
 5395SOL     OW21577   8.496   2.187   9.099
 5395SOL    HW121578   8.520   2.104   9.140
 5395SOL    HW221579   8.578   2.223   9.067
 5395SOL     MW21580   8.509   2.181   9.100
 5396SOL     OW21581   0.267   6.037   7.995
 5396SOL    HW121582   0.189   6.068   7.949
 5396SOL    HW221583   0.239   5.957   8.039
 5396SOL     MW21584   0.253   6.031   7.995
 5397SOL     OW21585   6.949   2.487   8.069
 5397SOL    HW121586   7.017   2.549   8.041
 5397SOL    HW221587   6.941   2.502   8.164
 5397SOL     MW21588   6.957   2.497   8.078
 5398SOL     OW21589   0.855   7.472   4.492
 5398SOL    HW121590   0.848   7.379   4.470
 5398SOL    HW221591   0.939   7.480   4.537
 5398SOL     MW21592   0.865   7.461   4.495
 5399SOL     OW21593   5.398   6.881   0.549
 5399SOL    HW121594   5.354   6.936   0.614
 5399SOL    HW221595   5.426   6.803   0.597
 5399SOL     MW21596   5.396   6.878   0.563
 5400SOL     OW21597   2.762   2.807   2.505
 5400SOL    HW121598   2.748   2.713   2.515
 5400SOL    HW221599   2.722   2.829   2.421
 5400SOL     MW21600   2.755   2.798   2.495
 5401SOL     OW21601   7.715   0.152   6.240
 5401SOL    HW121602   7.659   0.101   6.298
 5401SOL    HW221603   7.802   0.148   6.281
 5401SOL     MW21604   7.719   0.145   6.253
 5402SOL     OW21605   3.773   2.052   6.243
 5402SOL    HW121606   3.782   1.987   6.173
 5402SOL    HW221607   3.679   2.063   6.253
 5402SOL     MW21608   3.762   2.045   6.235
 5403SOL     OW21609   5.561   9.705   7.023
 5403SOL    HW121610   5.563   9.611   7.037
 5403SOL    HW221611   5.529   9.741   7.105
 5403SOL     MW21612   5.557   9.698   7.035
 5404SOL     OW21613   9.255  10.009   0.536
 5404SOL    HW121614   9.200  10.084   0.559
 5404SOL    HW221615   9.343  10.046   0.529
 5404SOL     MW21616   9.259  10.024   0.538
 5405SOL     OW21617   9.637   0.299   3.841
 5405SOL    HW121618   9.602   0.239   3.906
 5405SOL    HW221619   9.723   0.324   3.874
 5405SOL     MW21620   9.643   0.294   3.853
 5406SOL     OW21621   5.820   2.838   9.819
 5406SOL    HW121622   5.765   2.902   9.774
 5406SOL    HW221623   5.802   2.852   9.912
 5406SOL     MW21624   5.811   2.848   9.825
 5407SOL     OW21625   8.803   6.920   9.945
 5407SOL    HW121626   8.719   6.967   9.947
 5407SOL    HW221627   8.778   6.828   9.954
 5407SOL     MW21628   8.789   6.914   9.947
 5408SOL     OW21629   0.706   9.728   4.216
 5408SOL    HW121630   0.681   9.820   4.208
 5408SOL    HW221631   0.648   9.681   4.155
 5408SOL     MW21632   0.695   9.733   4.207
 5409SOL     OW21633   3.803   6.143   9.905
 5409SOL    HW121634   3.736   6.108   9.963
 5409SOL    HW221635   3.869   6.180   9.964
 5409SOL     MW21636   3.803   6.143   9.920
 5410SOL     OW21637   7.016   4.200   4.626
 5410SOL    HW121638   7.098   4.220   4.672
 5410SOL    HW221639   6.947   4.229   4.685
 5410SOL     MW21640   7.018   4.206   4.639
 5411SOL     OW21641   9.486   7.574   7.402
 5411SOL    HW121642   9.510   7.509   7.467
 5411SOL    HW221643   9.495   7.658   7.448
 5411SOL     MW21644   9.490   7.577   7.416
 5412SOL     OW21645   4.360   8.442   2.377
 5412SOL    HW121646   4.311   8.466   2.456
 5412SOL    HW221647   4.449   8.470   2.394
 5412SOL     MW21648   4.365   8.449   2.390
 5413SOL     OW21649   1.679   1.563   1.749
 5413SOL    HW121650   1.696   1.469   1.751
 5413SOL    HW221651   1.585   1.571   1.768
 5413SOL     MW21652   1.669   1.552   1.751
 5414SOL     OW21653   6.947   2.422   7.392
 5414SOL    HW121654   6.959   2.414   7.486
 5414SOL    HW221655   6.860   2.387   7.376
 5414SOL     MW21656   6.938   2.417   7.402
 5415SOL     OW21657   0.367   2.468   7.601
 5415SOL    HW121658   0.278   2.497   7.620
 5415SOL    HW221659   0.402   2.534   7.541
 5415SOL     MW21660   0.360   2.480   7.596
 5416SOL     OW21661   9.319   6.998   3.714
 5416SOL    HW121662   9.398   7.006   3.661
 5416SOL    HW221663   9.329   6.914   3.759
 5416SOL     MW21664   9.330   6.988   3.713
 5417SOL     OW21665   3.915   1.504   1.174
 5417SOL    HW121666   3.941   1.577   1.117
 5417SOL    HW221667   3.831   1.532   1.211
 5417SOL     MW21668   3.908   1.517   1.171
 5418SOL     OW21669   3.983   8.946   6.339
 5418SOL    HW121670   3.930   8.872   6.371
 5418SOL    HW221671   4.073   8.923   6.362
 5418SOL     MW21672   3.988   8.934   6.346
 5419SOL     OW21673   7.439   6.075   2.413
 5419SOL    HW121674   7.470   6.162   2.389
 5419SOL    HW221675   7.349   6.072   2.381
 5419SOL     MW21676   7.431   6.086   2.406
 5420SOL     OW21677   5.367   1.522   6.501
 5420SOL    HW121678   5.413   1.462   6.560
 5420SOL    HW221679   5.334   1.591   6.559
 5420SOL     MW21680   5.369   1.523   6.516
 5421SOL     OW21681   0.360   8.632   7.708
 5421SOL    HW121682   0.329   8.722   7.715
 5421SOL    HW221683   0.347   8.609   7.616
 5421SOL     MW21684   0.355   8.641   7.697
 5422SOL     OW21685   7.458   2.173   1.412
 5422SOL    HW121686   7.468   2.190   1.318
 5422SOL    HW221687   7.545   2.145   1.441
 5422SOL     MW21688   7.471   2.171   1.404
 5423SOL     OW21689   0.223   4.174   8.492
 5423SOL    HW121690   0.164   4.170   8.416
 5423SOL    HW221691   0.186   4.112   8.554
 5423SOL     MW21692   0.211   4.165   8.490
 5424SOL     OW21693   5.510   4.583   9.616
 5424SOL    HW121694   5.457   4.645   9.667
 5424SOL    HW221695   5.468   4.582   9.530
 5424SOL     MW21696   5.498   4.591   9.611
 5425SOL     OW21697   4.590   3.923   5.984
 5425SOL    HW121698   4.624   3.991   6.041
 5425SOL    HW221699   4.558   3.969   5.907
 5425SOL     MW21700   4.590   3.937   5.982
 5426SOL     OW21701   8.616   8.897   0.532
 5426SOL    HW121702   8.526   8.912   0.560
 5426SOL    HW221703   8.614   8.813   0.487
 5426SOL     MW21704   8.604   8.888   0.530
 5427SOL     OW21705   5.502   0.368   1.947
 5427SOL    HW121706   5.552   0.293   1.978
 5427SOL    HW221707   5.414   0.356   1.985
 5427SOL     MW21708   5.497   0.357   1.956
 5428SOL     OW21709  10.014   1.591   9.548
 5428SOL    HW121710   9.919   1.584   9.560
 5428SOL    HW221711  10.029   1.682   9.525
 5428SOL     MW21712  10.004   1.602   9.547
 5429SOL     OW21713   2.978   2.114   6.272
 5429SOL    HW121714   2.962   2.026   6.307
 5429SOL    HW221715   3.071   2.131   6.290
 5429SOL     MW21716   2.988   2.105   6.279
 5430SOL     OW21717   1.883   0.821   5.075
 5430SOL    HW121718   1.856   0.876   5.149
 5430SOL    HW221719   1.807   0.766   5.056
 5430SOL     MW21720   1.870   0.821   5.082
 5431SOL     OW21721   3.388   0.396   6.118
 5431SOL    HW121722   3.326   0.324   6.105
 5431SOL    HW221723   3.384   0.445   6.036
 5431SOL     MW21724   3.379   0.393   6.106
 5432SOL     OW21725   9.925   0.787   8.886
 5432SOL    HW121726   9.997   0.848   8.900
 5432SOL    HW221727   9.849   0.842   8.871
 5432SOL     MW21728   9.925   0.802   8.886
 5433SOL     OW21729   9.772   1.596   4.712
 5433SOL    HW121730   9.693   1.646   4.734
 5433SOL    HW221731   9.842   1.661   4.712
 5433SOL     MW21732   9.771   1.611   4.715
 5434SOL     OW21733   0.178   4.284   0.601
 5434SOL    HW121734   0.270   4.279   0.629
 5434SOL    HW221735   0.181   4.272   0.506
 5434SOL     MW21736   0.190   4.282   0.592
 5435SOL     OW21737   8.988   7.308   4.235
 5435SOL    HW121738   8.960   7.328   4.325
 5435SOL    HW221739   8.934   7.365   4.181
 5435SOL     MW21740   8.977   7.318   4.240
 5436SOL     OW21741   5.060   6.186   4.142
 5436SOL    HW121742   4.989   6.122   4.143
 5436SOL    HW221743   5.099   6.181   4.229
 5436SOL     MW21744   5.056   6.177   4.153
 5437SOL     OW21745   1.720   0.204   3.737
 5437SOL    HW121746   1.666   0.283   3.735
 5437SOL    HW221747   1.663   0.137   3.774
 5437SOL     MW21748   1.706   0.206   3.742
 5438SOL     OW21749   1.008   6.724   4.717
 5438SOL    HW121750   1.035   6.741   4.627
 5438SOL    HW221751   1.022   6.631   4.730
 5438SOL     MW21752   1.013   6.714   4.707
 5439SOL     OW21753   8.598   8.391   7.456
 5439SOL    HW121754   8.673   8.429   7.503
 5439SOL    HW221755   8.522   8.435   7.493
 5439SOL     MW21756   8.598   8.402   7.467
 5440SOL     OW21757   3.789   7.059   6.170
 5440SOL    HW121758   3.813   7.058   6.077
 5440SOL    HW221759   3.847   7.124   6.209
 5440SOL     MW21760   3.800   7.067   6.163
 5441SOL     OW21761   7.655   0.841   2.801
 5441SOL    HW121762   7.636   0.748   2.801
 5441SOL    HW221763   7.703   0.856   2.882
 5441SOL     MW21764   7.659   0.831   2.811
 5442SOL     OW21765   9.194   2.247   3.385
 5442SOL    HW121766   9.269   2.195   3.356
 5442SOL    HW221767   9.218   2.275   3.474
 5442SOL     MW21768   9.207   2.244   3.393
 5443SOL     OW21769   5.983   9.714   3.703
 5443SOL    HW121770   5.890   9.696   3.692
 5443SOL    HW221771   5.994   9.803   3.670
 5443SOL     MW21772   5.973   9.723   3.697
 5444SOL     OW21773   4.251   4.096   7.616
 5444SOL    HW121774   4.340   4.103   7.651
 5444SOL    HW221775   4.205   4.038   7.678
 5444SOL     MW21776   4.256   4.089   7.628
 5445SOL     OW21777   0.654   9.642   1.786
 5445SOL    HW121778   0.610   9.699   1.850
 5445SOL    HW221779   0.638   9.553   1.818
 5445SOL     MW21780   0.646   9.638   1.799
 5446SOL     OW21781   5.628   2.541   6.096
 5446SOL    HW121782   5.590   2.523   6.182
 5446SOL    HW221783   5.557   2.526   6.035
 5446SOL     MW21784   5.614   2.537   6.099
 5447SOL     OW21785   5.884   6.121   1.983
 5447SOL    HW121786   5.956   6.058   1.981
 5447SOL    HW221787   5.823   6.090   1.915
 5447SOL     MW21788   5.885   6.109   1.974
 5448SOL     OW21789   7.971   9.130   5.959
 5448SOL    HW121790   7.918   9.130   5.879
 5448SOL    HW221791   8.041   9.193   5.940
 5448SOL     MW21792   7.973   9.138   5.946
 5449SOL     OW21793   2.647   7.393   6.394
 5449SOL    HW121794   2.704   7.318   6.412
 5449SOL    HW221795   2.693   7.467   6.434
 5449SOL     MW21796   2.660   7.393   6.401
 5450SOL     OW21797   8.731   8.410   4.163
 5450SOL    HW121798   8.725   8.368   4.249
 5450SOL    HW221799   8.808   8.372   4.123
 5450SOL     MW21800   8.740   8.400   4.169
 5451SOL     OW21801   1.496   1.456   9.448
 5451SOL    HW121802   1.416   1.493   9.411
 5451SOL    HW221803   1.567   1.509   9.411
 5451SOL     MW21804   1.495   1.467   9.438
 5452SOL     OW21805   5.528   3.907   8.025
 5452SOL    HW121806   5.521   3.993   8.067
 5452SOL    HW221807   5.554   3.848   8.096
 5452SOL     MW21808   5.531   3.910   8.040
 5453SOL     OW21809   3.424   6.139   1.961
 5453SOL    HW121810   3.353   6.115   2.020
 5453SOL    HW221811   3.489   6.182   2.017
 5453SOL     MW21812   3.424   6.142   1.975
 5454SOL     OW21813   3.942   0.184   7.168
 5454SOL    HW121814   3.971   0.270   7.199
 5454SOL    HW221815   3.853   0.175   7.203
 5454SOL     MW21816   3.934   0.194   7.177
 5455SOL     OW21817   0.809   5.645   3.958
 5455SOL    HW121818   0.794   5.573   3.896
 5455SOL    HW221819   0.728   5.650   4.009
 5455SOL     MW21820   0.797   5.636   3.957
 5456SOL     OW21821   1.842   4.062   8.091
 5456SOL    HW121822   1.868   4.110   8.169
 5456SOL    HW221823   1.891   3.980   8.095
 5456SOL     MW21824   1.852   4.058   8.101
 5457SOL     OW21825   0.013   6.523   1.876
 5457SOL    HW121826   0.085   6.546   1.818
 5457SOL    HW221827   0.025   6.577   1.954
 5457SOL     MW21828   0.024   6.533   1.878
 5458SOL     OW21829   0.668   9.339   4.077
 5458SOL    HW121830   0.623   9.423   4.078
 5458SOL    HW221831   0.702   9.329   4.166
 5458SOL     MW21832   0.666   9.349   4.088
 5459SOL     OW21833   7.999   2.124   1.927
 5459SOL    HW121834   8.069   2.157   1.870
 5459SOL    HW221835   7.928   2.101   1.867
 5459SOL     MW21836   7.999   2.126   1.912
 5460SOL     OW21837   9.746   6.912   0.466
 5460SOL    HW121838   9.718   6.873   0.384
 5460SOL    HW221839   9.833   6.876   0.482
 5460SOL     MW21840   9.753   6.902   0.458
 5461SOL     OW21841  10.106   6.110   6.743
 5461SOL    HW121842  10.097   6.183   6.805
 5461SOL    HW221843  10.100   6.031   6.798
 5461SOL     MW21844  10.104   6.109   6.758
 5462SOL     OW21845   8.132   6.696   2.499
 5462SOL    HW121846   8.184   6.660   2.571
 5462SOL    HW221847   8.197   6.738   2.442
 5462SOL     MW21848   8.147   6.696   2.501
 5463SOL     OW21849   7.122   3.430   9.078
 5463SOL    HW121850   7.081   3.416   8.992
 5463SOL    HW221851   7.062   3.390   9.140
 5463SOL     MW21852   7.109   3.423   9.075
 5464SOL     OW21853   4.479   3.496   5.911
 5464SOL    HW121854   4.451   3.497   5.819
 5464SOL    HW221855   4.399   3.514   5.960
 5464SOL     MW21856   4.465   3.499   5.905
 5465SOL     OW21857   7.539   3.219   8.943
 5465SOL    HW121858   7.551   3.159   9.016
 5465SOL    HW221859   7.486   3.290   8.979
 5465SOL     MW21860   7.534   3.221   8.957
 5466SOL     OW21861   7.443   5.536   9.441
 5466SOL    HW121862   7.429   5.443   9.422
 5466SOL    HW221863   7.391   5.552   9.520
 5466SOL     MW21864   7.435   5.526   9.449
 5467SOL     OW21865   8.673   5.497   4.459
 5467SOL    HW121866   8.620   5.493   4.379
 5467SOL    HW221867   8.667   5.408   4.495
 5467SOL     MW21868   8.666   5.485   4.453
 5468SOL     OW21869   4.276   1.168   2.058
 5468SOL    HW121870   4.274   1.210   1.971
 5468SOL    HW221871   4.284   1.241   2.119
 5468SOL     MW21872   4.277   1.183   2.054
 5469SOL     OW21873   3.755   0.114   8.708
 5469SOL    HW121874   3.666   0.095   8.735
 5469SOL    HW221875   3.800   0.139   8.789
 5469SOL     MW21876   3.750   0.115   8.721
 5470SOL     OW21877   4.435   4.261   7.163
 5470SOL    HW121878   4.354   4.300   7.195
 5470SOL    HW221879   4.459   4.197   7.231
 5470SOL     MW21880   4.428   4.258   7.176
 5471SOL     OW21881   7.687   7.791   2.167
 5471SOL    HW121882   7.613   7.846   2.191
 5471SOL    HW221883   7.656   7.739   2.093
 5471SOL     MW21884   7.674   7.791   2.160
 5472SOL     OW21885   8.760   2.501   1.394
 5472SOL    HW121886   8.823   2.513   1.323
 5472SOL    HW221887   8.792   2.557   1.464
 5472SOL     MW21888   8.772   2.510   1.394
 5473SOL     OW21889   1.791   5.473   8.418
 5473SOL    HW121890   1.705   5.496   8.452
 5473SOL    HW221891   1.852   5.497   8.488
 5473SOL     MW21892   1.788   5.479   8.431
 5474SOL     OW21893   6.116   4.792   2.199
 5474SOL    HW121894   6.068   4.740   2.134
 5474SOL    HW221895   6.059   4.793   2.275
 5474SOL     MW21896   6.102   4.786   2.200
 5475SOL     OW21897   3.337   3.222   9.296
 5475SOL    HW121898   3.425   3.188   9.283
 5475SOL    HW221899   3.330   3.296   9.235
 5475SOL     MW21900   3.347   3.227   9.286
 5476SOL     OW21901   2.527   4.290   8.071
 5476SOL    HW121902   2.474   4.308   8.148
 5476SOL    HW221903   2.465   4.260   8.005
 5476SOL     MW21904   2.512   4.289   8.072
 5477SOL     OW21905   7.787   2.472   7.106
 5477SOL    HW121906   7.791   2.531   7.030
 5477SOL    HW221907   7.696   2.478   7.136
 5477SOL     MW21908   7.776   2.481   7.100
 5478SOL     OW21909   4.667   7.560   9.775
 5478SOL    HW121910   4.704   7.478   9.743
 5478SOL    HW221911   4.729   7.590   9.841
 5478SOL     MW21912   4.680   7.553   9.779
 5479SOL     OW21913   6.631   8.089   8.652
 5479SOL    HW121914   6.659   8.089   8.744
 5479SOL    HW221915   6.594   8.002   8.638
 5479SOL     MW21916   6.630   8.078   8.662
 5480SOL     OW21917   6.802   3.143   4.929
 5480SOL    HW121918   6.821   3.072   4.868
 5480SOL    HW221919   6.882   3.153   4.981
 5480SOL     MW21920   6.815   3.135   4.928
 5481SOL     OW21921   8.240   9.725   4.498
 5481SOL    HW121922   8.222   9.661   4.567
 5481SOL    HW221923   8.180   9.797   4.516
 5481SOL     MW21924   8.230   9.726   4.509
 5482SOL     OW21925   3.811   2.643   0.346
 5482SOL    HW121926   3.727   2.619   0.308
 5482SOL    HW221927   3.820   2.737   0.328
 5482SOL     MW21928   3.801   2.652   0.339
 5483SOL     OW21929   3.230   7.039   3.702
 5483SOL    HW121930   3.302   7.101   3.688
 5483SOL    HW221931   3.269   6.953   3.687
 5483SOL     MW21932   3.244   7.036   3.698
 5484SOL     OW21933   6.785   4.202   7.309
 5484SOL    HW121934   6.749   4.114   7.304
 5484SOL    HW221935   6.877   4.189   7.332
 5484SOL     MW21936   6.792   4.189   7.311
 5485SOL     OW21937   1.587   0.457   1.507
 5485SOL    HW121938   1.536   0.377   1.517
 5485SOL    HW221939   1.658   0.432   1.446
 5485SOL     MW21940   1.590   0.443   1.500
 5486SOL     OW21941   3.464   8.942   4.380
 5486SOL    HW121942   3.437   9.022   4.334
 5486SOL    HW221943   3.390   8.883   4.370
 5486SOL     MW21944   3.451   8.945   4.373
 5487SOL     OW21945   6.572   8.203   1.442
 5487SOL    HW121946   6.653   8.252   1.456
 5487SOL    HW221947   6.555   8.211   1.348
 5487SOL     MW21948   6.580   8.210   1.432
 5488SOL     OW21949   1.553   3.778   7.854
 5488SOL    HW121950   1.463   3.769   7.885
 5488SOL    HW221951   1.579   3.866   7.880
 5488SOL     MW21952   1.544   3.788   7.862
 5489SOL     OW21953   5.249   1.381   1.440
 5489SOL    HW121954   5.309   1.385   1.514
 5489SOL    HW221955   5.218   1.472   1.430
 5489SOL     MW21956   5.253   1.393   1.448
 5490SOL     OW21957   0.432   7.919   9.225
 5490SOL    HW121958   0.365   7.927   9.157
 5490SOL    HW221959   0.513   7.902   9.177
 5490SOL     MW21960   0.434   7.918   9.210
 5491SOL     OW21961   1.535   7.581   6.297
 5491SOL    HW121962   1.574   7.636   6.229
 5491SOL    HW221963   1.608   7.560   6.356
 5491SOL     MW21964   1.549   7.585   6.296
 5492SOL     OW21965   3.936   6.211  10.136
 5492SOL    HW121966   3.948   6.275  10.206
 5492SOL    HW221967   3.855   6.166  10.158
 5492SOL     MW21968   3.927   6.213  10.148
 5493SOL     OW21969   7.982   5.843   4.227
 5493SOL    HW121970   7.967   5.932   4.196
 5493SOL    HW221971   7.918   5.831   4.298
 5493SOL     MW21972   7.972   5.853   4.232
 5494SOL     OW21973   0.514   2.778   2.472
 5494SOL    HW121974   0.555   2.855   2.511
 5494SOL    HW221975   0.558   2.703   2.513
 5494SOL     MW21976   0.525   2.778   2.482
 5495SOL     OW21977   1.629   4.800   5.204
 5495SOL    HW121978   1.705   4.857   5.194
 5495SOL    HW221979   1.642   4.732   5.138
 5495SOL     MW21980   1.640   4.798   5.194
 5496SOL     OW21981   0.299   3.483   2.599
 5496SOL    HW121982   0.340   3.427   2.533
 5496SOL    HW221983   0.357   3.477   2.675
 5496SOL     MW21984   0.312   3.475   2.601
 5497SOL     OW21985   3.740   2.265   1.833
 5497SOL    HW121986   3.667   2.246   1.892
 5497SOL    HW221987   3.704   2.327   1.770
 5497SOL     MW21988   3.726   2.271   1.832
 5498SOL     OW21989   9.993   2.511   4.532
 5498SOL    HW121990   9.926   2.449   4.557
 5498SOL    HW221991  10.069   2.457   4.510
 5498SOL     MW21992   9.994   2.497   4.532
 5499SOL     OW21993   5.646   6.941   0.150
 5499SOL    HW121994   5.628   6.965   0.240
 5499SOL    HW221995   5.568   6.893   0.121
 5499SOL     MW21996   5.634   6.938   0.157
 5500SOL     OW21997   1.447   0.671   0.598
 5500SOL    HW121998   1.529   0.701   0.560
 5500SOL    HW221999   1.465   0.662   0.691
 5500SOL     MW22000   1.459   0.674   0.605
  10.16400  10.16400  10.16400
