Protein
22000
    1SOL     OW    1   2.799   0.632   3.624 -0.0807  0.5948 -0.5548
    1SOL    HW1    2   2.808   0.538   3.638 -2.8603  0.3758  0.5179
    1SOL    HW2    3   2.826   0.671   3.707  0.0215  0.6670 -0.6213
    1SOL     MW    4   2.804   0.625   3.637 -0.4234  0.5760 -0.4260
    2SOL     OW    5   4.432   1.829   3.422 -0.2123 -0.0455 -0.1396
    2SOL    HW1    6   4.413   1.822   3.515 -0.8702  0.9055 -0.1848
    2SOL    HW2    7   4.445   1.739   3.393 -0.7002 -0.4072  0.7292
    2SOL     MW    8   4.432   1.816   3.430 -0.3590  0.0300 -0.0342
    3SOL     OW    9   0.302   3.887   4.197  0.7792  0.8335  0.3252
    3SOL    HW1   10   0.284   3.976   4.167 -0.4814  0.3296 -0.5440
    3SOL    HW2   11   0.391   3.890   4.232  0.3902  2.6525  1.2613
    3SOL     MW   12   0.311   3.899   4.197  0.5681  1.0018  0.3338
    4SOL     OW   13   1.498   0.213   0.912 -0.0452 -0.1786  0.2074
    4SOL    HW1   14   1.545   0.148   0.860  1.2632  0.5587  0.4441
    4SOL    HW2   15   1.422   0.236   0.859  1.5221  0.9457 -1.6380
    4SOL     MW   16   1.494   0.208   0.899  0.3229  0.0597  0.0015
    5SOL     OW   17   4.500   0.290   1.469  0.0265  0.3844  0.4283
    5SOL    HW1   18   4.528   0.349   1.399 -0.7688 -2.2824 -2.3642
    5SOL    HW2   19   4.565   0.219   1.468 -0.5615 -0.2099  1.7470
    5SOL     MW   20   4.512   0.288   1.460 -0.1506 -0.0331  0.2396
    6SOL     OW   21   3.399   3.990   3.220  0.0700  0.3139 -0.0312
    6SOL    HW1   22   3.362   4.014   3.305 -0.1711  1.6474 -0.4891
    6SOL    HW2   23   3.379   3.897   3.212 -0.4025  0.2872  1.1259
    6SOL     MW   24   3.391   3.981   3.230 -0.0214  0.4812  0.0583
    7SOL     OW   25   2.539   2.639   2.351  0.3458 -0.1671  0.1482
    7SOL    HW1   26   2.545   2.635   2.447 -1.5518 -0.0270  0.3113
    7SOL    HW2   27   2.486   2.564   2.327  0.3524  0.1027 -0.7541
    7SOL     MW   28   2.533   2.629   2.361  0.1037 -0.1146  0.0536
    8SOL     OW   29   2.692   3.908   1.859 -0.4084 -0.3148 -0.1167
    8SOL    HW1   30   2.778   3.944   1.881 -0.1536 -0.0466 -1.4500
    8SOL    HW2   31   2.709   3.845   1.790 -1.1297 -1.3523  0.6290
    8SOL     MW   32   2.705   3.905   1.853 -0.4681 -0.4133 -0.1919
    9SOL     OW   33   0.204   1.971   4.339 -0.0660 -0.4736  0.7318
    9SOL    HW1   34   0.172   1.963   4.249  0.2258  1.1197  0.4627
    9SOL    HW2   35   0.146   1.915   4.390 -0.7468 -0.7602 -0.3255
    9SOL     MW   36   0.193   1.962   4.334 -0.1158 -0.3063  0.5620
   10SOL     OW   37   4.140   3.783   4.177 -0.4006  0.3666  0.3624
   10SOL    HW1   38   4.172   3.712   4.121 -1.6302 -0.9242  1.2449
   10SOL    HW2   39   4.220   3.831   4.202  0.3688 -0.2187 -0.8597
   10SOL     MW   40   4.154   3.780   4.173 -0.4595  0.1264  0.3189
   11SOL     OW   41   2.524   3.698   4.913 -0.3288  0.1484 -0.1399
   11SOL    HW1   42   2.432   3.679   4.929 -0.5452  1.5251  0.4280
   11SOL    HW2   43   2.558   3.723   4.999  0.5696 -0.2995 -0.3561
   11SOL     MW   44   2.517   3.699   4.926 -0.2415  0.2673 -0.0949
   12SOL     OW   45   0.232   2.741   1.251 -0.0685  0.1480  0.3344
   12SOL    HW1   46   0.226   2.741   1.156 -2.3172 -0.4054  0.4302
   12SOL    HW2   47   0.157   2.791   1.281 -0.9670 -1.9463  1.8315
   12SOL     MW   48   0.222   2.747   1.243 -0.4714 -0.1909  0.5383
   13SOL     OW   49   2.449   5.346   5.152 -0.2578 -0.5152  0.8151
   13SOL    HW1   50   2.539   5.335   5.184  0.1955 -1.3739 -0.6599
   13SOL    HW2   51   2.405   5.266   5.180  0.4109 -1.7597 -1.4383
   13SOL     MW   52   2.455   5.334   5.160 -0.1142 -0.7844  0.3378
   14SOL     OW   53   4.761   5.016   3.039  0.4773  0.0286 -0.3117
   14SOL    HW1   54   4.708   4.967   3.102  1.9300  0.9148  1.7073
   14SOL    HW2   55   4.818   4.950   3.000  0.3190 -0.3825  0.1288
   14SOL     MW   56   4.761   5.001   3.042  0.6430  0.0894  0.0031
   15SOL     OW   57   1.406   5.005   4.113  0.1147 -0.3901  0.4109
   15SOL    HW1   58   1.404   5.061   4.036 -0.3230 -2.3067 -1.0322
   15SOL    HW2   59   1.350   5.050   4.176 -0.0159  0.9036 -0.5780
   15SOL     MW   60   1.399   5.018   4.111  0.0420 -0.4698  0.0996
   16SOL     OW   61   0.704   1.070   0.219  0.0962 -0.0034 -0.1372
   16SOL    HW1   62   0.753   0.988   0.213  0.2334 -0.0270  1.0283
   16SOL    HW2   63   0.757   1.134   0.172  0.5977 -0.3191 -0.0070
   16SOL     MW   64   0.717   1.067   0.212  0.1780 -0.0468  0.0286
   17SOL     OW   65   2.114   4.459   2.679 -0.4020 -0.5218  0.5867
   17SOL    HW1   66   2.121   4.490   2.589  2.2545 -0.0632  0.8675
   17SOL    HW2   67   2.097   4.365   2.670  1.4908 -0.8264 -0.4966
   17SOL     MW   68   2.113   4.451   2.666  0.1804 -0.5021  0.4839
   18SOL     OW   69   0.654   1.198   3.516 -0.2023 -0.6127  0.2467
   18SOL    HW1   70   0.600   1.245   3.579  0.5682  1.7145 -0.7448
   18SOL    HW2   71   0.744   1.227   3.533  0.1278 -0.6048 -1.3234
   18SOL     MW   72   0.659   1.208   3.526 -0.0614 -0.3138 -0.0812
   19SOL     OW   73   3.298   0.948   5.154  0.3970 -0.2228 -0.2499
   19SOL    HW1   74   3.247   0.891   5.096  0.6993  0.0939 -0.8373
   19SOL    HW2   75   3.315   0.894   5.231 -0.2958 -0.5390 -0.3060
   19SOL     MW   76   3.293   0.934   5.156  0.3470 -0.2228 -0.3322
   20SOL     OW   77   0.758   1.824   1.156 -0.5143  0.0459 -0.1472
   20SOL    HW1   78   0.669   1.829   1.192 -0.0976 -0.2252  0.9718
   20SOL    HW2   79   0.746   1.802   1.064 -1.6809  1.9118 -0.5021
   20SOL     MW   80   0.745   1.822   1.149 -0.6103  0.2501 -0.0494
   21SOL     OW   81   2.736   5.102   0.275  0.3551 -0.2203 -0.2423
   21SOL    HW1   82   2.770   5.041   0.210  0.7011 -0.9300  0.5775
   21SOL    HW2   83   2.814   5.138   0.318  0.1466  0.5830 -0.5145
   21SOL     MW   84   2.750   5.099   0.272  0.3727 -0.2083 -0.1722
   22SOL     OW   85   2.989   4.870   2.891  0.3420  0.0614 -0.3040
   22SOL    HW1   86   2.950   4.883   2.977 -0.9884  1.2828 -1.0422
   22SOL    HW2   87   3.020   4.957   2.865 -0.0063 -0.1215 -1.3880
   22SOL     MW   88   2.988   4.883   2.898  0.1271  0.1943 -0.5373
   23SOL     OW   89   3.530   2.965   0.742 -0.2157  0.0878 -0.0077
   23SOL    HW1   90   3.571   2.879   0.741 -0.2946  0.0503 -0.0638
   23SOL    HW2   91   3.602   3.027   0.733 -0.1864  0.0186 -0.2416
   23SOL     MW   92   3.544   2.962   0.741 -0.2221  0.0742 -0.0448
   24SOL     OW   93   4.092   0.146   2.198  0.0534  0.1813  0.0986
   24SOL    HW1   94   4.146   0.199   2.257 -0.0720  2.0030 -1.3395
   24SOL    HW2   95   4.147   0.071   2.177  0.6310  0.2022  1.4234
   24SOL     MW   96   4.106   0.143   2.203  0.1113  0.4171  0.0841
   25SOL     OW   97   2.652   5.417   3.356  0.7571  0.2829  0.0652
   25SOL    HW1   98   2.617   5.445   3.271 -0.4320 -1.3363 -0.0298
   25SOL    HW2   99   2.733   5.370   3.334 -0.5714 -1.9238 -0.4608
   25SOL     MW  100   2.658   5.415   3.342  0.4348 -0.2069 -0.0143
   26SOL     OW  101   2.226   3.837   4.762  0.3137  0.0925 -0.1463
   26SOL    HW1  102   2.220   3.849   4.667  0.9350 -0.7110 -0.3096
   26SOL    HW2  103   2.144   3.871   4.796  0.1947  0.6430 -0.9511
   26SOL     MW  104   2.215   3.843   4.754  0.3780  0.0601 -0.2702
   27SOL     OW  105   1.308   2.479   2.813  0.6196 -0.5124 -0.2720
   27SOL    HW1  106   1.330   2.572   2.801 -0.1345 -0.2056  0.5983
   27SOL    HW2  107   1.213   2.476   2.803  0.6862 -1.2737 -0.7392
   27SOL     MW  108   1.298   2.491   2.810  0.5316 -0.5706 -0.2204
   28SOL     OW  109   2.953   3.336   1.011 -0.5157 -0.2937 -0.2709
   28SOL    HW1  110   2.869   3.326   0.966  0.4359 -2.8557 -1.6904
   28SOL    HW2  111   3.017   3.345   0.940  0.3881  3.0689  0.7707
   28SOL     MW  112   2.950   3.336   0.996 -0.2782 -0.1913 -0.3193
   29SOL     OW  113   1.560   1.163   4.239 -0.3817 -0.0686  0.1249
   29SOL    HW1  114   1.474   1.198   4.261 -0.7796 -0.4003 -0.8475
   29SOL    HW2  115   1.570   1.180   4.145 -0.8432 -3.0002 -0.5599
   29SOL     MW  116   1.550   1.170   4.229 -0.4917 -0.4863 -0.0872
   30SOL     OW  117   3.426   2.697   3.345 -0.0455  0.2037  0.2641
   30SOL    HW1  118   3.451   2.618   3.393 -1.7419  0.2334  1.3033
   30SOL    HW2  119   3.505   2.725   3.299  1.3754 -0.4442  2.2214
   30SOL     MW  120   3.439   2.691   3.345 -0.0807  0.1245  0.6477
   31SOL     OW  121   2.501   0.502   0.467 -0.0653 -0.0040 -0.2545
   31SOL    HW1  122   2.559   0.564   0.423  0.8616 -1.2713 -0.8710
   31SOL    HW2  123   2.415   0.518   0.429  0.4020  0.0535 -1.3090
   31SOL     MW  124   2.498   0.512   0.457  0.1132 -0.1589 -0.4684
   32SOL     OW  125   1.464   0.287   3.802  0.0805 -0.4212 -0.1069
   32SOL    HW1  126   1.413   0.322   3.729  1.6502 -1.4289 -1.7528
   32SOL    HW2  127   1.504   0.364   3.843  1.0859 -0.0048 -1.8068
   32SOL     MW  128   1.462   0.302   3.798  0.4101 -0.4969 -0.5352
   33SOL     OW  129   3.616   3.306   2.629  0.1156  0.0416  0.5713
   33SOL    HW1  130   3.557   3.381   2.625  0.0055 -0.0868 -0.9563
   33SOL    HW2  131   3.638   3.297   2.721 -1.3023  0.8308  1.0131
   33SOL     MW  132   3.611   3.314   2.640 -0.0800  0.1262  0.4323
   34SOL     OW  133   4.543   3.616   0.705 -0.0428 -0.1745 -0.3568
   34SOL    HW1  134   4.527   3.677   0.777  1.0909 -0.4893  0.1900
   34SOL    HW2  135   4.552   3.672   0.628 -1.6966  0.1368 -0.3711
   34SOL     MW  136   4.542   3.631   0.704 -0.1094 -0.1749 -0.2887
   35SOL     OW  137   4.884   1.804   1.038 -0.0121  0.0259 -0.0994
   35SOL    HW1  138   4.977   1.825   1.047 -0.0961  0.0658  0.7807
   35SOL    HW2  139   4.862   1.760   1.121 -0.4943 -1.0423 -0.7711
   35SOL     MW  140   4.893   1.801   1.050 -0.0846 -0.1058 -0.0727
   36SOL     OW  141   2.165   1.413   4.635  1.0211 -0.5679 -0.4712
   36SOL    HW1  142   2.201   1.461   4.709  0.4865  3.3789 -2.4722
   36SOL    HW2  143   2.079   1.383   4.665  1.8847 -1.4772  1.2542
   36SOL     MW  144   2.158   1.415   4.648  1.0632 -0.1791 -0.5065
   37SOL     OW  145   4.588   1.260   0.053  0.2075 -0.6246  0.8723
   37SOL    HW1  146   4.493   1.254   0.055 -0.0009  1.2038 -1.2550
   37SOL    HW2  147   4.616   1.182   0.005 -0.1976 -0.9803  1.1982
   37SOL     MW  148   4.580   1.249   0.047  0.1289 -0.4361  0.6417
   38SOL     OW  149   4.923   2.166   4.775 -0.4954  0.1905 -0.5157
   38SOL    HW1  150   4.905   2.073   4.766  1.2068 -0.3352  0.8922
   38SOL    HW2  151   4.936   2.197   4.685 -1.7693 -0.7323 -1.0523
   38SOL     MW  152   4.922   2.158   4.762 -0.4406  0.0051 -0.4041
   39SOL     OW  153   3.394   3.106   3.882 -0.0206  0.4489 -0.2882
   39SOL    HW1  154   3.341   3.150   3.815 -0.8606  0.9473  0.6818
   39SOL    HW2  155   3.458   3.172   3.909  1.1340 -0.1495 -1.4526
   39SOL     MW  156   3.396   3.120   3.877  0.0197  0.4361 -0.3131
   40SOL     OW  157   4.617   2.446   0.122  0.3360  0.2713  0.0076
   40SOL    HW1  158   4.665   2.513   0.074  0.1613 -0.0851 -0.6718
   40SOL    HW2  159   4.563   2.402   0.056  0.3865 -0.4851  0.4498
   40SOL     MW  160   4.616   2.449   0.108  0.3201  0.1289 -0.0228
   41SOL     OW  161   1.638   3.061   1.016 -0.3114 -0.1008  0.0903
   41SOL    HW1  162   1.721   3.055   0.970 -0.5446  1.7036 -0.6527
   41SOL    HW2  163   1.572   3.065   0.947 -0.8241  0.6438  0.6016
   41SOL     MW  164   1.640   3.061   1.002 -0.4069  0.2255  0.0606
   42SOL     OW  165   1.128   3.835   3.166 -0.0008  0.2883  0.3323
   42SOL    HW1  166   1.057   3.890   3.134 -0.6906  0.5369  2.1745
   42SOL    HW2  167   1.122   3.841   3.261  0.1742 -2.6090  0.6159
   42SOL     MW  168   1.118   3.842   3.174 -0.0667 -0.0508  0.6044
   43SOL     OW  169   3.216   3.899   4.434  0.2516  0.0148 -0.1375
   43SOL    HW1  170   3.246   3.985   4.404  0.0532 -0.2225 -1.0614
   43SOL    HW2  171   3.127   3.914   4.464 -0.5044 -0.2013 -2.1319
   43SOL     MW  172   3.209   3.912   4.434  0.1294 -0.0433 -0.5111
   44SOL     OW  173   2.911   5.199   1.016 -0.5056 -0.5865  0.5008
   44SOL    HW1  174   2.833   5.176   0.967 -0.2178  2.1646 -1.4855
   44SOL    HW2  175   2.894   5.287   1.051  2.0541  0.6827 -1.0993
   44SOL     MW  176   2.899   5.208   1.014 -0.1411 -0.0719  0.0417
   45SOL     OW  177   3.866   2.789   0.838 -0.0785 -0.5930 -0.2654
   45SOL    HW1  178   3.957   2.766   0.853 -0.3971 -2.0485 -0.3664
   45SOL    HW2  179   3.868   2.847   0.762  0.7399 -0.7965 -0.4072
   45SOL     MW  180   3.878   2.793   0.830 -0.0145 -0.8054 -0.2965
   46SOL     OW  181   1.422   0.956   0.578 -0.1476  0.2274 -0.4685
   46SOL    HW1  182   1.504   0.952   0.628  0.4765  2.4579 -1.1841
   46SOL    HW2  183   1.359   0.909   0.631  0.8895  1.0661  1.6243
   46SOL     MW  184   1.425   0.950   0.591  0.0650  0.6203 -0.2922
   47SOL     OW  185   5.136   2.811   3.445  0.2509 -0.7173  0.0830
   47SOL    HW1  186   5.193   2.831   3.519  1.9607  1.0087 -1.5504
   47SOL    HW2  187   5.176   2.735   3.403 -0.5351 -1.4992  0.7233
   47SOL     MW  188   5.149   2.804   3.449  0.3692 -0.5965 -0.0441
   48SOL     OW  189   3.826   4.484   0.360  0.3905 -0.1123 -0.8009
   48SOL    HW1  190   3.886   4.419   0.397  2.0835  0.9907 -1.5070
   48SOL    HW2  191   3.834   4.475   0.265 -0.5078  0.1229 -0.9155
   48SOL     MW  192   3.834   4.475   0.353  0.4923  0.0590 -0.9060
   49SOL     OW  193   4.375   0.209   4.715  0.8044 -0.2504 -0.4576
   49SOL    HW1  194   4.338   0.139   4.662  1.4314 -1.3893  0.5747
   49SOL    HW2  195   4.359   0.289   4.664 -2.3563 -0.7540 -0.4424
   49SOL     MW  196   4.368   0.211   4.702  0.4801 -0.4606 -0.3235
   50SOL     OW  197   1.725   0.201   2.210  0.0259  0.7179  0.1288
   50SOL    HW1  198   1.735   0.279   2.155 -1.2453  0.3427 -0.6778
   50SOL    HW2  199   1.702   0.132   2.148  1.5826 -0.4228  0.7737
   50SOL     MW  200   1.723   0.203   2.195  0.0625  0.5238  0.1081
   51SOL     OW  201   2.237   1.887   2.495 -0.4383  0.1381  0.0534
   51SOL    HW1  202   2.324   1.886   2.535 -0.4576 -0.4024  0.0899
   51SOL    HW2  203   2.222   1.796   2.468 -0.0190  0.6551 -2.0846
   51SOL     MW  204   2.246   1.875   2.497 -0.3871  0.1351 -0.2156
   52SOL     OW  205   1.784   4.472   4.491  0.0345 -0.2243 -0.3838
   52SOL    HW1  206   1.800   4.403   4.427 -0.7538 -0.7684 -0.0201
   52SOL    HW2  207   1.754   4.547   4.439  0.7733 -0.1864 -0.7664
   52SOL     MW  208   1.782   4.473   4.476  0.0282 -0.2891 -0.3862
   53SOL     OW  209   1.886   0.385   1.382 -0.7003 -0.1461  0.1273
   53SOL    HW1  210   1.810   0.367   1.326 -0.3298  0.6849 -0.6656
   53SOL    HW2  211   1.877   0.323   1.454 -1.2945 -1.1223 -0.7469
   53SOL     MW  212   1.875   0.375   1.384 -0.7290 -0.1647 -0.0861
   54SOL     OW  213   2.154   4.251   0.375 -0.4353  0.1005 -0.0113
   54SOL    HW1  214   2.148   4.280   0.284 -0.8581  0.7878  0.2300
   54SOL    HW2  215   2.079   4.292   0.418 -1.5843 -2.0419  0.1628
   54SOL     MW  216   2.143   4.260   0.369 -0.6365 -0.0858  0.0419
   55SOL     OW  217   1.406   2.215   4.160 -0.6912  0.1774  0.7245
   55SOL    HW1  218   1.429   2.308   4.163  0.1276 -0.0383  1.8246
   55SOL    HW2  219   1.457   2.181   4.086  0.1604  0.3169  1.2356
   55SOL     MW  220   1.416   2.223   4.151 -0.4774  0.1676  0.9308
   56SOL     OW  221   2.295   2.679   1.419 -0.2719  0.1757  0.2573
   56SOL    HW1  222   2.342   2.615   1.473 -0.0300  0.5505  0.4980
   56SOL    HW2  223   2.234   2.721   1.480 -0.5248  0.0835  0.0689
   56SOL     MW  224   2.293   2.676   1.434 -0.2733  0.2119  0.2640
   57SOL     OW  225   3.306   3.533   4.981 -0.2200 -0.4778 -0.1127
   57SOL    HW1  226   3.302   3.488   4.896  0.3700 -2.7102  0.9709
   57SOL    HW2  227   3.262   3.474   5.042  1.2881  0.0269  1.5473
   57SOL     MW  228   3.300   3.520   4.978  0.0486 -0.6989  0.2385
   58SOL     OW  229   1.978   0.771   5.034 -0.2330  0.0255 -0.0400
   58SOL    HW1  230   2.073   0.780   5.026 -0.2370  0.7071  0.5724
   58SOL    HW2  231   1.946   0.765   4.944  0.5466 -2.0101 -0.2371
   58SOL     MW  232   1.986   0.771   5.022 -0.1337 -0.1478  0.0132
   59SOL     OW  233   5.067   1.088   3.013 -0.5490  0.8104  0.1355
   59SOL    HW1  234   5.019   1.155   3.062 -3.2488 -0.7992 -0.0935
   59SOL    HW2  235   5.099   1.028   3.080 -1.9786  0.0175  0.1530
   59SOL     MW  236   5.065   1.089   3.028 -1.0776  0.5028  0.1084
   60SOL     OW  237   1.955   2.540   1.724  0.3482  0.2355  0.2591
   60SOL    HW1  238   1.962   2.526   1.629  1.7968 -0.6401  0.4734
   60SOL    HW2  239   2.045   2.546   1.755 -0.0495 -0.9123  1.7789
   60SOL     MW  240   1.967   2.539   1.716  0.4827 -0.0235  0.4811
   61SOL     OW  241   1.103   0.160   4.450 -0.2075 -0.0940 -0.0518
   61SOL    HW1  242   1.147   0.242   4.470 -0.6802 -0.2977  2.1028
   61SOL    HW2  243   1.129   0.140   4.360  3.1882  0.3440  0.6841
   61SOL     MW  244   1.112   0.168   4.441  0.1667 -0.0640  0.3182
   62SOL     OW  245   2.669   0.525   3.294  0.2235 -0.3607  0.2713
   62SOL    HW1  246   2.637   0.554   3.380  1.7770  0.3238  0.6465
   62SOL    HW2  247   2.744   0.581   3.276 -0.8853  0.4516 -2.1894
   62SOL     MW  248   2.674   0.536   3.303  0.2805 -0.1691  0.0043
   63SOL     OW  249   3.011   0.168   4.139 -0.4357 -0.3832 -0.0672
   63SOL    HW1  250   2.971   0.246   4.175  0.8725 -0.2870  1.2828
   63SOL    HW2  251   3.083   0.148   4.199 -0.6118 -2.5113 -0.4885
   63SOL     MW  252   3.015   0.175   4.151 -0.2907 -0.6433  0.0517
   64SOL     OW  253   3.453   1.427   4.929 -0.4219  0.0784 -0.5549
   64SOL    HW1  254   3.471   1.512   4.889  1.8609 -0.4316 -0.8019
   64SOL    HW2  255   3.417   1.374   4.858  1.0513 -0.0271 -1.2627
   64SOL     MW  256   3.451   1.431   4.915  0.0589 -0.0004 -0.6771
   65SOL     OW  257   4.446   0.159   3.650  0.5730 -0.5620  0.4083
   65SOL    HW1  258   4.426   0.102   3.724 -0.2294  1.1439  1.5638
   65SOL    HW2  259   4.540   0.178   3.659  0.5139 -0.4874  0.9051
   65SOL     MW  260   4.456   0.154   3.660  0.4627 -0.3341  0.6198
   66SOL     OW  261   5.303   2.990   2.564 -0.1107 -0.1960 -0.0743
   66SOL    HW1  262   5.306   2.937   2.484  2.1604 -2.0345  1.1306
   66SOL    HW2  263   5.393   3.020   2.576 -0.8911  2.0882  0.5608
   66SOL     MW  264   5.315   2.987   2.555  0.0801 -0.1389  0.1612
   67SOL     OW  265   4.535   4.667   1.758 -0.0517  0.1759  0.0399
   67SOL    HW1  266   4.441   4.687   1.762  0.0322  0.6207 -0.1095
   67SOL    HW2  267   4.551   4.648   1.665  0.0836  0.4997 -0.0041
   67SOL     MW  268   4.525   4.667   1.746 -0.0236  0.2743  0.0151
   68SOL     OW  269   1.570   1.365   2.713  0.5313  0.4377  0.3206
   68SOL    HW1  270   1.646   1.381   2.768  1.6181 -0.8957 -0.7376
   68SOL    HW2  271   1.516   1.304   2.763  2.0291 -1.6219 -0.4265
   68SOL     MW  272   1.573   1.359   2.726  0.8622  0.0034  0.0895
   69SOL     OW  273   4.428   4.718   3.870  0.1276 -0.0155  0.1565
   69SOL    HW1  274   4.377   4.643   3.901 -0.8973 -0.3412 -2.1270
   69SOL    HW2  275   4.396   4.734   3.781  0.6051  2.8951  0.4058
   69SOL     MW  276   4.417   4.710   3.863  0.0575  0.3154 -0.1039
   70SOL     OW  277   2.287   2.638   4.998 -0.6822 -0.3061  0.8715
   70SOL    HW1  278   2.207   2.664   5.045 -0.0101  1.1153  1.2911
   70SOL    HW2  279   2.334   2.720   4.985  0.5847 -1.0930  0.3749
   70SOL     MW  280   2.283   2.652   5.002 -0.4340 -0.2249  0.8617
   71SOL     OW  281   4.836   0.636   5.202 -0.6396  0.1604  0.2356
   71SOL    HW1  282   4.862   0.547   5.178  2.0455  1.3850 -2.0068
   71SOL    HW2  283   4.849   0.640   5.296  0.5953 -1.4345  0.1895
   71SOL     MW  284   4.841   0.625   5.211 -0.1378  0.1130 -0.0574
   72SOL     OW  285   3.722   5.445   4.914  0.0761  0.1229  0.4820
   72SOL    HW1  286   3.758   5.525   4.953 -1.1381  1.3816 -0.8321
   72SOL    HW2  287   3.751   5.375   4.971 -0.7935  1.7455  3.0976
   72SOL     MW  288   3.730   5.447   4.926 -0.1907  0.4917  0.6486
   73SOL     OW  289   2.078   4.285   3.114 -0.6178  0.0653 -0.1945
   73SOL    HW1  290   2.135   4.357   3.141  1.0586 -0.8640 -1.1163
   73SOL    HW2  291   2.048   4.246   3.196  0.2984  0.4056  0.3106
   73SOL     MW  292   2.081   4.290   3.128 -0.2859 -0.0101 -0.2478
   74SOL     OW  293   2.852   0.067   2.277  0.5240 -0.4068  0.8633
   74SOL    HW1  294   2.766   0.075   2.319  0.5613 -2.0444  1.2897
   74SOL    HW2  295   2.907   0.025   2.342  0.7494 -2.4283 -0.5584
   74SOL     MW  296   2.848   0.063   2.291  0.5576 -0.8752  0.7359
   75SOL     OW  297   3.605   0.007   3.671 -0.1959  0.0296 -0.2992
   75SOL    HW1  298   3.537  -0.060   3.669  0.6529 -0.8614 -2.4075
   75SOL    HW2  299   3.567   0.082   3.626 -1.1193  1.0429  1.9967
   75SOL     MW  300   3.592   0.008   3.665 -0.2055  0.0453 -0.2752
   76SOL     OW  301   1.433   0.207   2.003 -0.4173 -0.5244  0.3758
   76SOL    HW1  302   1.442   0.287   2.054  0.9721 -1.1084  1.1031
   76SOL    HW2  303   1.402   0.237   1.917 -2.6123  0.4922  1.4306
   76SOL     MW  304   1.430   0.221   1.998 -0.5204 -0.4690  0.6039
   77SOL     OW  305   4.454   0.693   4.847  0.6725 -1.0898  0.2122
   77SOL    HW1  306   4.480   0.785   4.860  1.5157 -1.2992  0.1134
   77SOL    HW2  307   4.498   0.646   4.918  1.8896 -1.6685 -0.8707
   77SOL     MW  308   4.463   0.699   4.858  0.9363 -1.1907  0.0609
   78SOL     OW  309   1.153   5.008   0.382  0.7324  0.6164  0.1553
   78SOL    HW1  310   1.229   4.976   0.333 -0.2353 -0.1361 -0.9148
   78SOL    HW2  311   1.144   5.099   0.355  0.0632  0.1398 -1.3044
   78SOL     MW  312   1.161   5.016   0.372  0.5229  0.4591 -0.1686
   79SOL     OW  313   5.245   2.847   1.093 -0.0324 -0.2804  0.2175
   79SOL    HW1  314   5.308   2.780   1.066  1.3489 -0.4398  3.4190
   79SOL    HW2  315   5.160   2.804   1.087 -0.0401 -0.0709 -4.1829
   79SOL     MW  316   5.242   2.833   1.089  0.1435 -0.2740  0.0641
   80SOL     OW  317   2.614   0.545   4.332 -0.6567 -0.4914  0.4816
   80SOL    HW1  318   2.593   0.560   4.424 -1.9168 -0.8103  0.2741
   80SOL    HW2  319   2.528   0.534   4.290 -0.2981  2.0513 -1.1628
   80SOL     MW  320   2.600   0.546   4.338 -0.7721 -0.2068  0.2446
   81SOL     OW  321   2.000   0.147   2.300  0.0978  0.7958  0.4276
   81SOL    HW1  322   1.938   0.203   2.253 -0.4210  0.0825  0.2522
   81SOL    HW2  323   1.945   0.090   2.353  0.6573  1.3385  1.6399
   81SOL     MW  324   1.985   0.147   2.301  0.1030  0.7739  0.5603
   82SOL     OW  325   1.610   2.012   3.430 -0.3126  0.0775 -0.5799
   82SOL    HW1  326   1.601   2.018   3.335 -1.2172 -3.5788 -0.8448
   82SOL    HW2  327   1.704   2.000   3.444 -0.3008 -0.5357 -1.1388
   82SOL     MW  328   1.621   2.011   3.420 -0.4269 -0.4690 -0.6854
   83SOL     OW  329   1.642   0.680   5.437  0.0115 -0.3685 -0.2491
   83SOL    HW1  330   1.685   0.679   5.351 -0.2803 -0.1416 -0.4009
   83SOL    HW2  331   1.549   0.692   5.417 -0.0427 -0.1841  0.1068
   83SOL     MW  332   1.635   0.681   5.423 -0.0328 -0.3158 -0.2229
   84SOL     OW  333   1.112   5.102   1.925 -0.5577 -0.3372  0.3184
   84SOL    HW1  334   1.140   5.192   1.941 -0.6526 -0.5960  2.2488
   84SOL    HW2  335   1.043   5.110   1.859 -0.3380  0.9669  0.2137
   84SOL     MW  336   1.107   5.115   1.919 -0.5417 -0.2034  0.5521
   85SOL     OW  337   3.825   4.896   3.604  0.0394  0.0015  0.0307
   85SOL    HW1  338   3.771   4.838   3.551  0.0261  0.3746 -0.3690
   85SOL    HW2  339   3.832   4.852   3.689 -0.3761 -0.3454 -0.1133
   85SOL     MW  340   3.819   4.883   3.608 -0.0155  0.0048 -0.0389
   86SOL     OW  341   1.740   2.709   1.626 -0.1421 -0.3150 -0.1925
   86SOL    HW1  342   1.811   2.763   1.661 -0.0509 -0.8927  0.5581
   86SOL    HW2  343   1.761   2.620   1.655 -2.2102 -0.2325  1.8746
   86SOL     MW  344   1.752   2.704   1.635 -0.3952 -0.3784  0.1682
   87SOL     OW  345   5.119   4.744   4.250  0.8623  0.0132 -0.6146
   87SOL    HW1  346   5.079   4.662   4.223 -0.3951  1.0829 -2.1131
   87SOL    HW2  347   5.156   4.781   4.170 -0.8012  2.0826 -0.5155
   87SOL     MW  348   5.119   4.738   4.237  0.4884  0.4151 -0.7937
   88SOL     OW  349   2.885   4.898   2.619  0.3591 -0.5551 -0.4160
   88SOL    HW1  350   2.897   4.987   2.585  1.2216 -1.0602 -1.4943
   88SOL    HW2  351   2.940   4.895   2.697 -0.3928  0.1276  0.1576
   88SOL     MW  352   2.894   4.909   2.625  0.3733 -0.5324 -0.4806
   89SOL     OW  353   3.906   3.171   0.012 -0.0439 -0.5214 -0.3123
   89SOL    HW1  354   4.000   3.191   0.018 -0.0576  0.8784 -3.0782
   89SOL    HW2  355   3.864   3.238   0.064  0.4283  0.4743 -1.1654
   89SOL     MW  356   3.913   3.182   0.019  0.0148 -0.2147 -0.7755
   90SOL     OW  357   4.062   1.804   2.461 -0.0228 -0.1354  0.5748
   90SOL    HW1  358   4.021   1.851   2.388  1.3800  0.7755  0.3455
   90SOL    HW2  359   4.077   1.716   2.428 -0.1585  0.0290  0.0598
   90SOL     MW  360   4.058   1.799   2.448  0.1394  0.0022  0.4795
   91SOL     OW  361   1.750   1.720   3.616 -0.0597 -0.4196  0.0662
   91SOL    HW1  362   1.823   1.662   3.636  1.4502  0.7801 -1.6496
   91SOL    HW2  363   1.721   1.754   3.701  1.1837 -1.1259  0.7926
   91SOL     MW  364   1.755   1.717   3.629  0.2927 -0.3565 -0.0605
   92SOL     OW  365   0.744   1.154   2.393 -0.0511 -0.5755 -0.1696
   92SOL    HW1  366   0.760   1.145   2.299  0.5597 -1.2804 -0.0072
   92SOL    HW2  367   0.831   1.146   2.433 -0.1036  1.2159  0.3663
   92SOL     MW  368   0.757   1.152   2.386  0.0204 -0.4364 -0.0802
   93SOL     OW  369   0.381  -0.024   1.187 -0.2552  0.3895 -0.0772
   93SOL    HW1  370   0.396  -0.001   1.095 -0.0073 -0.6559 -0.3094
   93SOL    HW2  371   0.355   0.059   1.228  1.8057  1.3560 -0.6035
   93SOL     MW  372   0.379  -0.010   1.181  0.0404  0.3794 -0.1743
   94SOL     OW  373   3.151   2.030   5.151 -0.2461 -0.2062  0.1889
   94SOL    HW1  374   3.180   2.027   5.243 -1.3598 -1.9169  0.5182
   94SOL    HW2  375   3.205   1.965   5.107  0.9444  1.2580 -0.6254
   94SOL     MW  376   3.162   2.022   5.157 -0.2363 -0.2377  0.1268
   95SOL     OW  377   0.440   2.874   1.337 -0.3716 -0.0296 -0.5553
   95SOL    HW1  378   0.359   2.828   1.316 -0.9196  1.2326 -1.2891
   95SOL    HW2  379   0.505   2.838   1.277 -0.1260 -1.6937  0.6376
   95SOL     MW  380   0.438   2.864   1.327 -0.4103 -0.0811 -0.4965
   96SOL     OW  381   3.312   1.868   4.555  0.4967 -0.3889 -0.2488
   96SOL    HW1  382   3.280   1.950   4.517 -1.1393 -0.3478  1.1301
   96SOL    HW2  383   3.405   1.884   4.572  0.0284  1.4924  0.7843
   96SOL     MW  384   3.320   1.881   4.552  0.2274 -0.1428  0.0600
   97SOL     OW  385   1.505   0.580   4.342 -0.0228 -0.1185  0.4450
   97SOL    HW1  386   1.553   0.571   4.260 -0.2100  0.1154  0.3112
   97SOL    HW2  387   1.492   0.490   4.373 -1.6797 -0.3361 -0.7664
   97SOL     MW  388   1.510   0.567   4.336 -0.2589 -0.1164  0.2728
   98SOL     OW  389   1.204   3.066   0.066 -0.1976 -0.0816 -0.3812
   98SOL    HW1  390   1.232   2.977   0.047 -2.0639 -0.5560 -1.0609
   98SOL    HW2  391   1.141   3.057   0.137  0.0372  0.7754 -0.0495
   98SOL     MW  392   1.200   3.054   0.073 -0.4064 -0.0326 -0.4257
   99SOL     OW  393   1.298   4.511  -0.001 -0.2667  0.3664  0.3524
   99SOL    HW1  394   1.209   4.477  -0.012 -0.1284 -0.5192  1.6646
   99SOL    HW2  395   1.291   4.573   0.072  0.2882 -0.2094  0.9124
   99SOL     MW  396   1.286   4.514   0.007 -0.1779  0.1793  0.5921
  100SOL     OW  397   3.594   1.063   0.674 -0.0159 -0.2514 -0.1858
  100SOL    HW1  398   3.524   1.017   0.720  0.2476 -3.0520 -2.3151
  100SOL    HW2  399   3.563   1.153   0.668 -1.2823 -0.3615  2.8578
  100SOL     MW  400   3.581   1.068   0.679 -0.1443 -0.6240 -0.0688
  101SOL     OW  401  -0.011   0.240   4.600 -0.1233 -0.0592  0.1487
  101SOL    HW1  402  -0.001   0.308   4.667 -0.4672  1.2582 -1.0872
  101SOL    HW2  403   0.057   0.176   4.620  1.6869  1.7585  0.0839
  101SOL     MW  404  -0.001   0.241   4.611  0.0644  0.3421 -0.0178
  102SOL     OW  405   1.823   1.018   5.345  0.1713 -0.1916  0.2089
  102SOL    HW1  406   1.890   1.059   5.290  0.5744  0.3826  1.1195
  102SOL    HW2  407   1.871   0.969   5.411 -0.2873  0.4675  1.0578
  102SOL     MW  408   1.837   1.017   5.346  0.1642 -0.0337  0.4342
  103SOL     OW  409   2.957   3.974   3.394  0.1031  0.0237  0.5544
  103SOL    HW1  410   2.904   3.959   3.472 -2.0919  1.1288 -0.6574
  103SOL    HW2  411   2.963   4.069   3.386  2.0106 -0.0643  0.4440
  103SOL     MW  412   2.951   3.984   3.403  0.0663  0.1539  0.3852
  104SOL     OW  413   2.999   1.781   3.225 -0.0697 -0.2418 -0.2942
  104SOL    HW1  414   3.087   1.817   3.218 -0.7402  1.4340 -0.5733
  104SOL    HW2  415   2.979   1.785   3.319  0.0504 -0.3937 -0.2612
  104SOL     MW  416   3.008   1.786   3.236 -0.1401 -0.0467 -0.3257
  105SOL     OW  417   2.351   1.885   1.936 -0.2726  0.0670 -0.1317
  105SOL    HW1  418   2.361   1.930   1.852  0.5197  2.0116  0.9383
  105SOL    HW2  419   2.418   1.924   1.992 -0.1526 -1.8444  1.1683
  105SOL     MW  420   2.361   1.896   1.932 -0.1558  0.0712  0.1717
  106SOL     OW  421   4.390   3.919   1.692  0.0549 -0.0198  0.3357
  106SOL    HW1  422   4.463   3.952   1.744  0.6361 -1.4715  0.4819
  106SOL    HW2  423   4.367   3.991   1.633  1.8994  0.2999 -0.0291
  106SOL     MW  424   4.396   3.932   1.691  0.3654 -0.1647  0.3077
  107SOL     OW  425   5.255   1.276   2.982 -0.0912  0.4060 -0.1218
  107SOL    HW1  426   5.254   1.305   2.891  1.0450  1.5419  0.2001
  107SOL    HW2  427   5.197   1.200   2.983 -0.7382  0.8297 -1.6303
  107SOL     MW  428   5.247   1.270   2.970 -0.0286  0.6057 -0.2737
  108SOL     OW  429   3.907   1.783   2.686 -0.4643 -0.2838 -0.3179
  108SOL    HW1  430   3.829   1.757   2.638 -0.4603  0.8056 -0.9419
  108SOL    HW2  431   3.975   1.795   2.620  0.3156 -1.4104  0.2340
  108SOL     MW  432   3.906   1.781   2.672 -0.3639 -0.2886 -0.3271
  109SOL     OW  433   3.547   5.187   3.960 -0.0473  0.3921 -0.2936
  109SOL    HW1  434   3.511   5.273   3.937  0.6807  0.6745 -0.3963
  109SOL    HW2  435   3.642   5.200   3.962  0.0603 -0.3649 -0.1162
  109SOL     MW  436   3.554   5.200   3.957  0.0596  0.3314 -0.2840
  110SOL     OW  437   2.079   2.984   4.326  0.8168 -1.0680 -0.5917
  110SOL    HW1  438   2.090   2.988   4.231 -0.8893 -2.2358 -0.8871
  110SOL    HW2  439   2.013   2.916   4.339  1.7664 -1.6716  1.5099
  110SOL     MW  440   2.072   2.976   4.315  0.7200 -1.2947 -0.3605
  111SOL     OW  441   0.261   1.612   2.659 -0.2615  0.0842  0.1200
  111SOL    HW1  442   0.315   1.656   2.725  0.5609  0.2088 -0.6105
  111SOL    HW2  443   0.171   1.627   2.688  0.0904 -0.2858  1.4646
  111SOL     MW  444   0.256   1.620   2.671 -0.1112  0.0528  0.1986
  112SOL     OW  445   3.444   2.192   4.249 -0.2715  0.1892  0.2600
  112SOL    HW1  446   3.510   2.234   4.305 -0.2485  1.7672 -0.9011
  112SOL    HW2  447   3.488   2.112   4.218 -0.0145 -0.3304  1.8361
  112SOL     MW  448   3.458   2.187   4.252 -0.2357  0.3247  0.3131
  113SOL     OW  449   2.345   0.294   5.059 -0.0387  0.1423 -0.4166
  113SOL    HW1  450   2.356   0.375   5.010  1.9784  1.0494  1.4044
  113SOL    HW2  451   2.250   0.287   5.074 -0.4142  1.2358 -2.0287
  113SOL     MW  452   2.334   0.303   5.054  0.1714  0.3984 -0.3899
  114SOL     OW  453   4.908   4.096   1.319  0.2342 -0.1614  0.6179
  114SOL    HW1  454   4.856   4.177   1.327 -1.1789 -1.0088  0.2988
  114SOL    HW2  455   4.992   4.119   1.357 -0.3815  1.2530  1.2224
  114SOL     MW  456   4.912   4.110   1.325 -0.0255 -0.0888  0.6545
  115SOL     OW  457   5.334   1.471   0.618 -0.2546 -0.0667 -0.5725
  115SOL    HW1  458   5.304   1.468   0.527 -1.6950 -0.8847 -0.1052
  115SOL    HW2  459   5.322   1.382   0.650  1.4150 -0.0773  0.0787
  115SOL     MW  460   5.328   1.459   0.610 -0.2252 -0.1728 -0.4293
  116SOL     OW  461   1.078   4.999   5.220 -0.0015 -0.4884  0.0461
  116SOL    HW1  462   1.000   5.053   5.231 -0.8804 -1.5993 -0.4893
  116SOL    HW2  463   1.114   5.026   5.136 -0.1368 -0.3655  0.0268
  116SOL     MW  464   1.073   5.009   5.211 -0.1313 -0.6148 -0.0249
  117SOL     OW  465   0.676   2.552   3.068 -0.0942 -0.2610  0.1488
  117SOL    HW1  466   0.677   2.628   3.009 -1.3617 -0.1049  0.2862
  117SOL    HW2  467   0.666   2.590   3.156 -0.2646 -0.5704  0.2640
  117SOL     MW  468   0.675   2.567   3.072 -0.2783 -0.2806  0.1811
  118SOL     OW  469   5.305   1.606   4.126 -0.2074  0.1464  0.3539
  118SOL    HW1  470   5.326   1.674   4.061 -1.2431 -0.2536 -0.4175
  118SOL    HW2  471   5.212   1.618   4.144  0.2199  0.7668  2.4084
  118SOL     MW  472   5.296   1.616   4.120 -0.2852  0.1746  0.5181
  119SOL     OW  473   2.608   3.412   1.929 -0.1101  0.1158  0.5365
  119SOL    HW1  474   2.625   3.323   1.897 -1.6124  0.0914 -0.2612
  119SOL    HW2  475   2.618   3.468   1.852  1.3324  0.7443  1.1337
  119SOL     MW  476   2.612   3.408   1.915 -0.1178  0.1931  0.5109
  120SOL     OW  477   4.396   4.931   4.275 -0.3202  0.4024  0.2060
  120SOL    HW1  478   4.490   4.940   4.291 -0.5777  1.7562  1.0903
  120SOL    HW2  479   4.373   4.848   4.317  0.7502 -0.8191 -1.4776
  120SOL     MW  480   4.405   4.921   4.282 -0.2161  0.4193  0.1037
  121SOL     OW  481   1.924   2.574   2.834 -0.8149 -0.2385  0.9850
  121SOL    HW1  482   1.963   2.524   2.906  0.5706  0.2129  0.5804
  121SOL    HW2  483   1.946   2.665   2.853  4.0986 -0.3471 -2.4028
  121SOL     MW  484   1.932   2.579   2.846 -0.0086 -0.1946  0.4995
  122SOL     OW  485   4.236   1.035   1.623  0.1138  0.2468 -0.4468
  122SOL    HW1  486   4.156   1.009   1.669 -0.3987  3.1234  0.5045
  122SOL    HW2  487   4.297   1.060   1.693  0.4687  1.6755 -1.2256
  122SOL     MW  488   4.234   1.035   1.638  0.0936  0.7979 -0.4247
  123SOL     OW  489   2.557   3.335   3.227  0.2724 -0.2388  0.3187
  123SOL    HW1  490   2.580   3.245   3.249  0.6434 -0.1568  0.2757
  123SOL    HW2  491   2.483   3.356   3.285  1.7625  0.2541  2.1382
  123SOL     MW  492   2.550   3.326   3.237  0.5106 -0.1652  0.5461
  124SOL     OW  493   4.491   1.508   4.167 -0.3435  0.1585 -0.5505
  124SOL    HW1  494   4.434   1.584   4.167  0.7461  1.0818  1.7608
  124SOL    HW2  495   4.465   1.458   4.245  0.0779 -0.9448 -1.0898
  124SOL     MW  496   4.481   1.511   4.177 -0.1501  0.1355 -0.3237
  125SOL     OW  497   2.383   3.735   0.421 -0.3333 -0.1381 -0.4664
  125SOL    HW1  498   2.289   3.736   0.442 -0.2965 -1.8952 -0.0337
  125SOL    HW2  499   2.395   3.656   0.369  1.0627 -0.4757  0.3156
  125SOL     MW  500   2.372   3.725   0.417 -0.1499 -0.4062 -0.3109
  126SOL     OW  501   4.501   2.473   5.163  0.2737 -0.1908  0.7050
  126SOL    HW1  502   4.441   2.502   5.232 -0.4455 -0.2852  0.1371
  126SOL    HW2  503   4.454   2.402   5.119  0.3963  0.3686 -0.3532
  126SOL     MW  504   4.487   2.468   5.166  0.1973 -0.1312  0.4968
  127SOL     OW  505   0.549   1.339   2.453  0.1106  0.1484 -0.4494
  127SOL    HW1  506   0.487   1.305   2.388  0.1304 -2.2492  0.6802
  127SOL    HW2  507   0.634   1.307   2.425  0.3133  0.3117 -0.0309
  127SOL     MW  508   0.552   1.331   2.441  0.1391 -0.1376 -0.2512
  128SOL     OW  509   4.746   0.917   0.788 -0.0048  0.3408  0.2273
  128SOL    HW1  510   4.767   0.873   0.705  1.6428 -0.5625  1.0836
  128SOL    HW2  511   4.724   1.007   0.762  0.7418  0.1530 -1.1604
  128SOL     MW  512   4.746   0.923   0.774  0.3017  0.2011  0.1593
  129SOL     OW  513   1.194   4.534   0.744 -0.9285  0.0772 -0.5053
  129SOL    HW1  514   1.254   4.460   0.753 -1.5918 -0.5452 -1.0147
  129SOL    HW2  515   1.113   4.495   0.709 -1.2574  1.0547 -0.8741
  129SOL     MW  516   1.191   4.519   0.741 -1.0555  0.1227 -0.6177
  130SOL     OW  517   1.979   4.147   4.179  0.3213  0.0513 -0.2487
  130SOL    HW1  518   1.987   4.242   4.163  0.3645  0.3072  1.1427
  130SOL    HW2  519   2.062   4.111   4.149 -0.5515  0.0682 -3.0027
  130SOL     MW  520   1.991   4.155   4.173  0.2151  0.0862 -0.4231
  131SOL     OW  521   3.837   0.452   0.148  0.2105 -0.1247 -0.3961
  131SOL    HW1  522   3.818   0.371   0.102 -1.7320 -0.8147  1.4640
  131SOL    HW2  523   3.759   0.506   0.135 -0.1182 -0.0810  1.4382
  131SOL     MW  524   3.825   0.449   0.141 -0.0803 -0.2075  0.0768
  132SOL     OW  525   0.608   0.238   0.902  0.1525  0.1823  0.4128
  132SOL    HW1  526   0.611   0.144   0.884 -0.9867 -0.0310  1.2603
  132SOL    HW2  527   0.522   0.266   0.871  0.9419  1.2144 -0.9622
  132SOL     MW  528   0.597   0.230   0.896  0.1077  0.2871  0.3453
  133SOL     OW  529   2.475   0.763   5.342 -0.3354 -0.0229 -0.5065
  133SOL    HW1  530   2.547   0.826   5.335  0.5829 -0.8915  0.6857
  133SOL    HW2  531   2.512   0.681   5.308 -0.9217 -0.3696 -0.3201
  133SOL     MW  532   2.489   0.760   5.337 -0.2929 -0.1785 -0.3300
  134SOL     OW  533   3.333   2.090   3.415 -0.1504  0.8054 -0.1789
  134SOL    HW1  534   3.249   2.055   3.446  0.0374 -0.0167 -0.5581
  134SOL    HW2  535   3.311   2.174   3.375 -0.7616  0.6835 -0.1048
  134SOL     MW  536   3.319   2.096   3.414 -0.2046  0.6846 -0.2179
  135SOL     OW  537   2.423   5.345   0.952 -0.8809  0.2562  0.2419
  135SOL    HW1  538   2.462   5.313   1.033 -1.4259 -0.4602  0.2361
  135SOL    HW2  539   2.342   5.388   0.979 -0.4803  1.0680  0.1816
  135SOL     MW  540   2.417   5.346   0.965 -0.8994  0.2684  0.2334
  136SOL     OW  541   3.601   4.005   4.294 -0.5960  0.2262 -0.1584
  136SOL    HW1  542   3.583   4.053   4.375  2.7528 -0.1281  0.9818
  136SOL    HW2  543   3.574   4.064   4.224 -1.5447  1.4915  1.2221
  136SOL     MW  544   3.595   4.018   4.295 -0.2888  0.3428  0.1643
  137SOL     OW  545   2.201   2.147   2.759 -0.4809 -0.4290 -0.3737
  137SOL    HW1  546   2.135   2.081   2.778  0.3087 -1.2222 -0.2956
  137SOL    HW2  547   2.222   2.186   2.844  0.8850 -1.8876  0.0156
  137SOL     MW  548   2.195   2.143   2.772 -0.2050 -0.7172 -0.3139
  138SOL     OW  549   1.901   1.598   3.093 -0.0632 -0.3162  0.5156
  138SOL    HW1  550   1.839   1.649   3.145 -0.8274 -0.6609 -0.0361
  138SOL    HW2  551   1.987   1.631   3.119 -0.5359  1.2813  0.1435
  138SOL     MW  552   1.904   1.609   3.103 -0.2215 -0.1558  0.3973
  139SOL     OW  553   4.886   0.406   3.736  0.5316  0.0428  0.4171
  139SOL    HW1  554   4.897   0.429   3.828  0.0081  1.1252  0.2246
  139SOL    HW2  555   4.966   0.436   3.694  0.0261  1.1834  0.2366
  139SOL     MW  556   4.897   0.413   3.742  0.3999  0.3274  0.3694
  140SOL     OW  557   4.493   2.022   4.279  0.7671 -0.1481  0.0335
  140SOL    HW1  558   4.398   2.030   4.264  0.0033 -0.5205  3.6951
  140SOL    HW2  559   4.523   2.111   4.291  0.5842 -0.1009  0.1582
  140SOL     MW  560   4.484   2.034   4.279  0.6459 -0.1897  0.5182
  141SOL     OW  561   1.936   2.179   0.654 -0.0211 -0.0177 -0.0172
  141SOL    HW1  562   2.030   2.168   0.672 -0.1152 -1.8029 -0.4025
  141SOL    HW2  563   1.922   2.273   0.659  1.4197  0.1650  1.8366
  141SOL     MW  564   1.946   2.189   0.657  0.1513 -0.2229  0.1708
  142SOL     OW  565   4.804   0.856   5.049 -0.7970 -0.0911  0.7278
  142SOL    HW1  566   4.833   0.775   5.090 -2.3249 -1.1158 -0.1293
  142SOL    HW2  567   4.867   0.871   4.978 -1.9617 -1.9938 -0.7811
  142SOL     MW  568   4.816   0.848   5.045 -1.1417 -0.4659  0.4249
  143SOL     OW  569   1.129   2.802   1.486  0.0444 -0.0244 -0.4210
  143SOL    HW1  570   1.137   2.779   1.578  2.4751  0.7417 -0.3743
  143SOL    HW2  571   1.151   2.895   1.482  2.0007 -0.4966 -1.9751
  143SOL     MW  572   1.133   2.811   1.497  0.6060  0.0132 -0.6139
  144SOL     OW  573   4.479   4.098   5.150  0.5290  0.1528  0.0972
  144SOL    HW1  574   4.417   4.062   5.214  0.5284  1.5897  0.9551
  144SOL    HW2  575   4.424   4.130   5.078  0.4559 -0.6119 -0.1917
  144SOL     MW  576   4.464   4.098   5.149  0.5196  0.2388  0.1700
  145SOL     OW  577   4.684   0.761   3.582 -0.2161  0.3372  0.0506
  145SOL    HW1  578   4.693   0.690   3.646 -0.6930  0.3423  0.1243
  145SOL    HW2  579   4.692   0.841   3.634  1.0114  0.3492 -0.1267
  145SOL     MW  580   4.686   0.762   3.597 -0.1200  0.3394  0.0373
  146SOL     OW  581   4.061   4.823   0.607 -0.4413  0.5508  0.0285
  146SOL    HW1  582   4.148   4.818   0.566 -1.7171 -1.3655 -2.7361
  146SOL    HW2  583   4.016   4.891   0.557 -1.2637 -0.1388 -0.1834
  146SOL     MW  584   4.067   4.831   0.595 -0.7099  0.2172 -0.3525
  147SOL     OW  585   4.838   0.563   4.838  0.4010 -0.4073 -0.0922
  147SOL    HW1  586   4.747   0.543   4.859  0.0254  1.1382 -0.1459
  147SOL    HW2  587   4.884   0.555   4.922  0.4909 -2.4428 -0.2945
  147SOL     MW  588   4.832   0.560   4.852  0.3644 -0.4700 -0.1250
  148SOL     OW  589   2.740   2.483   4.590 -0.2110 -0.4265  0.1638
  148SOL    HW1  590   2.825   2.501   4.549 -0.0103 -0.4739  0.5605
  148SOL    HW2  591   2.748   2.394   4.625 -0.3085 -0.3086  0.4886
  148SOL     MW  592   2.752   2.474   4.589 -0.1978 -0.4175  0.2562
  149SOL     OW  593   5.024   1.560   2.685 -0.1337  0.3880 -0.0805
  149SOL    HW1  594   5.061   1.532   2.602  0.4990 -0.5233  0.4935
  149SOL    HW2  595   4.943   1.510   2.694 -0.9269  1.5130 -0.7849
  149SOL     MW  596   5.018   1.550   2.676 -0.1543  0.4154 -0.0972
  150SOL     OW  597   1.908   1.642   0.981 -0.1339  0.0100  0.1913
  150SOL    HW1  598   1.972   1.685   0.925  0.4766  0.4857  1.2277
  150SOL    HW2  599   1.825   1.686   0.961  0.3373  1.1503  0.6633
  150SOL     MW  600   1.906   1.653   0.971  0.0046  0.2169  0.3844
  151SOL     OW  601   3.451   5.434   0.784 -0.5249  0.5761 -0.2158
  151SOL    HW1  602   3.459   5.353   0.834 -1.6551  0.0950 -0.8000
  151SOL    HW2  603   3.369   5.426   0.736 -0.4571  1.8951 -0.6025
  151SOL     MW  604   3.442   5.423   0.784 -0.6609  0.6834 -0.3401
  152SOL     OW  605   0.606   4.621   2.732 -1.0231  0.2728  0.1798
  152SOL    HW1  606   0.566   4.550   2.782 -0.8435 -0.8391 -1.1891
  152SOL    HW2  607   0.589   4.599   2.641  1.7184  0.3203 -0.4313
  152SOL     MW  608   0.599   4.609   2.727 -0.6492  0.1365 -0.0736
  153SOL     OW  609   0.700   2.694   1.872  0.2800  0.4416 -0.2181
  153SOL    HW1  610   0.735   2.745   1.945 -0.6482 -0.2006  0.7038
  153SOL    HW2  611   0.631   2.750   1.835 -1.4929 -0.5106  1.4791
  153SOL     MW  612   0.696   2.708   1.877 -0.0658  0.2375  0.1172
  154SOL     OW  613   2.655   2.687   5.310 -0.3545 -0.2605 -0.0816
  154SOL    HW1  614   2.706   2.748   5.256 -0.1535 -0.1115  0.2708
  154SOL    HW2  615   2.652   2.606   5.259  0.2023 -0.2562 -0.1225
  154SOL     MW  616   2.661   2.685   5.296 -0.2575 -0.2409 -0.0417
  155SOL     OW  617   1.296   2.203   0.172  0.3552 -0.0067  0.1315
  155SOL    HW1  618   1.265   2.233   0.258 -0.3298 -2.2456  0.7266
  155SOL    HW2  619   1.382   2.164   0.190 -0.0536 -1.0171 -0.0843
  155SOL     MW  620   1.303   2.202   0.186  0.2152 -0.4227  0.1801
  156SOL     OW  621   1.183   1.674   3.224  0.4082  0.1880  0.0058
  156SOL    HW1  622   1.209   1.592   3.264  0.5636 -0.0742 -0.6199
  156SOL    HW2  623   1.127   1.716   3.289  0.3194 -0.4138  0.3219
  156SOL     MW  624   1.180   1.669   3.237  0.4167  0.0774 -0.0338
  157SOL     OW  625   5.179   4.598   4.691 -0.6033  0.2931 -0.3913
  157SOL    HW1  626   5.246   4.555   4.743 -0.4944 -1.2127 -1.6853
  157SOL    HW2  627   5.225   4.626   4.611 -1.0466  1.3072 -0.3088
  157SOL     MW  628   5.194   4.596   4.687 -0.6461  0.2301 -0.5464
  158SOL     OW  629   5.274   2.502   0.297  0.7517 -0.7332  0.1766
  158SOL    HW1  630   5.265   2.416   0.257  0.2958 -0.5956 -0.0175
  158SOL    HW2  631   5.338   2.548   0.242 -0.6048 -0.1903 -1.0153
  158SOL     MW  632   5.281   2.497   0.285  0.5197 -0.6461 -0.0008
  159SOL     OW  633   3.153   0.687   2.795 -0.4622  0.0596  0.1264
  159SOL    HW1  634   3.194   0.769   2.767 -1.0539  0.1723 -0.4087
  159SOL    HW2  635   3.180   0.623   2.730 -0.9373  0.0821 -0.0946
  159SOL     MW  636   3.162   0.690   2.783 -0.5988  0.0769  0.0296
  160SOL     OW  637   1.587   1.709   2.854  0.1957  0.1308  0.2798
  160SOL    HW1  638   1.675   1.744   2.863  1.1034 -2.1551  1.0498
  160SOL    HW2  639   1.531   1.773   2.899  1.6312  0.9309  1.0001
  160SOL     MW  640   1.591   1.722   2.861  0.4957 -0.0594  0.4706
  161SOL     OW  641   5.040   4.794   4.830 -0.0169  0.3126  0.6768
  161SOL    HW1  642   5.116   4.807   4.887  1.5345 -1.1566 -0.9475
  161SOL    HW2  643   5.075   4.750   4.753 -1.8806  2.8174 -1.8062
  161SOL     MW  644   5.054   4.790   4.828 -0.0568  0.4451  0.1510
  162SOL     OW  645   2.242   0.230   3.783 -0.4629 -0.1405  0.1172
  162SOL    HW1  646   2.232   0.140   3.751  0.7403 -1.0454  2.1086
  162SOL    HW2  647   2.165   0.244   3.838 -0.8542  0.2202 -0.5090
  162SOL     MW  648   2.231   0.220   3.786 -0.3589 -0.2102  0.2920
  163SOL     OW  649   3.096   4.060   1.647 -0.0222 -0.1687  0.6226
  163SOL    HW1  650   3.049   4.054   1.564 -0.7049 -0.0218  0.9934
  163SOL    HW2  651   3.156   4.133   1.635 -1.8311  1.4665  1.0833
  163SOL     MW  652   3.098   4.068   1.635 -0.3411  0.0594  0.7290
  164SOL     OW  653   4.622   3.006   0.459  0.0600  0.3739  0.1196
  164SOL    HW1  654   4.689   3.047   0.404 -0.5101  1.4450  0.1932
  164SOL    HW2  655   4.610   2.919   0.422 -0.1040  0.9677 -1.2849
  164SOL     MW  656   4.629   3.000   0.447 -0.0340  0.5870 -0.0507
  165SOL     OW  657   1.322   2.469   5.290 -0.0054  0.7572 -0.2644
  165SOL    HW1  658   1.254   2.501   5.231 -3.0984 -0.2136  2.4659
  165SOL    HW2  659   1.297   2.378   5.308  1.3466  0.7302  1.7681
  165SOL     MW  660   1.310   2.461   5.284 -0.2283  0.6295  0.3453
  166SOL     OW  661   4.826   1.221   5.344 -0.2749  0.4185 -0.4144
  166SOL    HW1  662   4.909   1.262   5.318 -0.5995  1.5658  0.2969
  166SOL    HW2  663   4.759   1.271   5.297 -0.6351  0.2577 -0.0717
  166SOL     MW  664   4.828   1.233   5.335 -0.3625  0.5448 -0.2795
  167SOL     OW  665   2.291   1.736   4.648 -0.4355  0.0576 -0.6235
  167SOL    HW1  666   2.304   1.828   4.672  1.0202 -0.4500  0.7322
  167SOL    HW2  667   2.373   1.712   4.604 -1.4518 -0.1782 -2.4703
  167SOL     MW  668   2.303   1.745   4.645 -0.3792 -0.0376 -0.6863
  168SOL     OW  669   0.732   0.689   3.973  0.1744  0.0126 -0.7818
  168SOL    HW1  670   0.673   0.663   3.902  0.0758 -0.8652 -0.3954
  168SOL    HW2  671   0.753   0.607   4.018  2.8756  0.0487 -1.7962
  168SOL     MW  672   0.727   0.675   3.970  0.5075 -0.0951 -0.8622
  169SOL     OW  673   1.535   3.011   1.865  0.2857 -0.2855  0.1408
  169SOL    HW1  674   1.489   3.062   1.932  0.7761 -1.0565  1.0950
  169SOL    HW2  675   1.507   2.920   1.880 -0.4659 -0.3570 -1.4381
  169SOL     MW  676   1.525   3.006   1.876  0.2523 -0.3933  0.0609
  170SOL     OW  677   0.807   1.067   3.922  0.0414  0.2429  0.0675
  170SOL    HW1  678   0.794   1.155   3.887 -0.3473  1.0004  2.0230
  170SOL    HW2  679   0.719   1.037   3.945  0.1251 -0.8244 -0.9189
  170SOL     MW  680   0.794   1.074   3.920  0.0023  0.2032  0.1916
  171SOL     OW  681   4.212   3.290   2.815 -0.1539 -0.1334 -0.8744
  171SOL    HW1  682   4.267   3.309   2.891 -0.1889 -1.9151 -0.3616
  171SOL    HW2  683   4.227   3.364   2.756  3.9682 -1.1652 -1.4196
  171SOL     MW  684   4.221   3.302   2.817  0.3693 -0.4936 -0.8786
  172SOL     OW  685   3.688   0.365   4.100  0.2523 -0.4094  0.4021
  172SOL    HW1  686   3.647   0.292   4.055  0.8100 -0.8952  0.6719
  172SOL    HW2  687   3.727   0.418   4.030 -1.2569  0.3440  0.0938
  172SOL     MW  688   3.688   0.363   4.085  0.1305 -0.3752  0.3972
  173SOL     OW  689   2.673   3.338   3.636  0.3783  0.2164  0.1217
  173SOL    HW1  690   2.604   3.278   3.608  1.8080 -0.7862 -1.4349
  173SOL    HW2  691   2.748   3.316   3.581  1.3306  2.6413  0.3174
  173SOL     MW  692   2.674   3.328   3.625  0.6832  0.3985 -0.0525
  174SOL     OW  693   2.659   0.918   0.728  0.0330 -0.4650 -0.2842
  174SOL    HW1  694   2.699   0.981   0.668 -0.9996 -0.9115 -1.4868
  174SOL    HW2  695   2.568   0.947   0.736 -0.2977 -1.4404 -0.3611
  174SOL     MW  696   2.652   0.930   0.721 -0.1415 -0.6470 -0.4480
  175SOL     OW  697   0.726   3.475   2.518 -0.2429 -0.1330 -0.2091
  175SOL    HW1  698   0.817   3.446   2.511  0.4774  1.1847  2.4008
  175SOL    HW2  699   0.684   3.408   2.573 -1.0989 -1.0714 -1.9050
  175SOL     MW  700   0.732   3.462   2.524 -0.2603 -0.0844 -0.0921
  176SOL     OW  701   3.586   4.918   2.700 -0.1432  1.0614  0.2141
  176SOL    HW1  702   3.525   4.946   2.768  0.1394  0.6259  0.6486
  176SOL    HW2  703   3.672   4.923   2.741 -0.0391  0.0627  0.1382
  176SOL     MW  704   3.589   4.922   2.714 -0.0937  0.8778  0.2600
  177SOL     OW  705   1.959   5.423   2.736 -0.3221 -0.0653 -0.2432
  177SOL    HW1  706   1.880   5.400   2.785 -0.2853 -2.2790 -1.0951
  177SOL    HW2  707   1.935   5.409   2.645  1.4366 -2.3631 -0.4544
  177SOL     MW  708   1.946   5.418   2.731 -0.0923 -0.6429 -0.3793
  178SOL     OW  709   2.842   0.652   2.012  0.1141  0.2742  0.1947
  178SOL    HW1  710   2.756   0.628   2.047 -1.1447  2.3547 -1.2610
  178SOL    HW2  711   2.823   0.707   1.936  2.6513 -3.3423 -3.4728
  178SOL     MW  712   2.828   0.656   2.007  0.2777  0.0776 -0.4611
  179SOL     OW  713   1.941   0.211   1.603 -0.0898 -0.0895 -0.1834
  179SOL    HW1  714   2.035   0.198   1.593 -0.2005 -0.0282 -1.4950
  179SOL    HW2  715   1.902   0.145   1.545 -0.8117  0.9533 -0.9230
  179SOL     MW  716   1.948   0.201   1.594 -0.1964  0.0518 -0.4460
  180SOL     OW  717   2.399   1.386   4.513  0.2121 -0.2481 -0.1346
  180SOL    HW1  718   2.313   1.406   4.549  0.1886 -1.7579  0.7141
  180SOL    HW2  719   2.458   1.385   4.589  0.4087 -2.1675 -0.2769
  180SOL     MW  720   2.396   1.389   4.527  0.2343 -0.6871 -0.0441
  181SOL     OW  721   2.359   4.187   2.855 -0.2982  0.0290 -0.8050
  181SOL    HW1  722   2.423   4.211   2.788  1.0039  1.3795  0.8094
  181SOL    HW2  723   2.384   4.239   2.931 -2.2267 -0.8041  0.4814
  181SOL     MW  724   2.371   4.197   2.856 -0.3784  0.0952 -0.4337
  182SOL     OW  725   2.468   1.401   3.645  0.3837  0.1768 -0.1911
  182SOL    HW1  726   2.528   1.471   3.671  0.7864 -0.2206 -0.0531
  182SOL    HW2  727   2.465   1.343   3.721 -1.0184  0.7458  0.2391
  182SOL     MW  728   2.475   1.403   3.658  0.2558  0.1988 -0.1184
  183SOL     OW  729   4.166   4.798   0.148 -0.0625  1.3149  0.3132
  183SOL    HW1  730   4.217   4.872   0.181  2.0093 -0.3757  1.1699
  183SOL    HW2  731   4.149   4.744   0.225  1.4066 -0.7213 -0.6963
  183SOL     MW  732   4.171   4.801   0.162  0.3908  0.8378  0.2936
  184SOL     OW  733   1.330   3.563   0.224 -0.3490 -0.5433  0.4206
  184SOL    HW1  734   1.300   3.640   0.176  0.0429 -0.4075  0.3923
  184SOL    HW2  735   1.258   3.544   0.285 -2.0995 -2.3749 -2.0281
  184SOL     MW  736   1.317   3.570   0.226 -0.5229 -0.7604  0.1035
  185SOL     OW  737   2.024   3.411   1.801  0.1623 -0.2885  0.0480
  185SOL    HW1  738   1.943   3.455   1.828 -0.0696 -0.6448 -0.0605
  185SOL    HW2  739   2.057   3.370   1.881  1.2871  1.4717  0.5472
  185SOL     MW  740   2.018   3.412   1.814  0.2766 -0.1088  0.0980
  186SOL     OW  741   2.016   4.729   1.126  0.1747 -0.0110  0.5192
  186SOL    HW1  742   1.990   4.802   1.070 -0.5114 -0.3729  0.3497
  186SOL    HW2  743   1.934   4.683   1.145  0.8321 -2.0312 -1.1760
  186SOL     MW  744   2.002   4.733   1.121  0.1710 -0.3159  0.2805
  187SOL     OW  745   2.609   4.895   1.792  0.2185 -0.3278 -0.7095
  187SOL    HW1  746   2.603   4.948   1.713 -0.1032  1.2079  0.3068
  187SOL    HW2  747   2.555   4.941   1.856 -0.1950 -1.9737  0.1862
  187SOL     MW  748   2.602   4.907   1.790  0.1244 -0.3419 -0.4647
  188SOL     OW  749   1.018   4.183   3.276 -0.2751 -0.0752  0.1561
  188SOL    HW1  750   1.069   4.123   3.330 -0.7615 -0.4081  0.2456
  188SOL    HW2  751   1.067   4.189   3.194  0.3476  0.2563  0.5413
  188SOL     MW  752   1.031   4.176   3.272 -0.2576 -0.0754  0.2168
  189SOL     OW  753   2.775   2.696   2.221  0.1570  0.1942 -0.2728
  189SOL    HW1  754   2.687   2.676   2.253 -0.0879 -0.0755 -1.1033
  189SOL    HW2  755   2.808   2.762   2.282 -1.2084  1.4215 -0.8047
  189SOL     MW  756   2.768   2.702   2.233 -0.0492  0.3168 -0.4472
  190SOL     OW  757   0.747   1.888   3.955 -1.0168  0.0464  0.0288
  190SOL    HW1  758   0.805   1.901   4.030 -1.4806 -0.2828  0.4555
  190SOL    HW2  759   0.770   1.957   3.894  0.6227 -0.7641 -0.3142
  190SOL     MW  760   0.757   1.898   3.957 -0.8663 -0.0995  0.0395
  191SOL     OW  761   3.559   0.926   5.074  0.2428 -0.0915 -0.0507
  191SOL    HW1  762   3.468   0.938   5.102  0.7537  0.3270  1.5427
  191SOL    HW2  763   3.610   0.980   5.136  1.4516  1.0503 -1.9405
  191SOL     MW  764   3.554   0.935   5.086  0.4630  0.1083 -0.0886
  192SOL     OW  765   1.726   5.409   0.233 -0.3618 -0.6383  0.6186
  192SOL    HW1  766   1.732   5.485   0.291  2.8482  0.2414 -0.6096
  192SOL    HW2  767   1.650   5.426   0.178  0.4422  1.9701  0.1686
  192SOL     MW  768   1.717   5.421   0.233  0.1520 -0.1918  0.4038
  193SOL     OW  769   0.310   3.029   1.901 -0.0803  0.4040  0.3287
  193SOL    HW1  770   0.369   2.957   1.879  0.2443  0.8074 -0.1343
  193SOL    HW2  771   0.368   3.102   1.924 -0.4047  0.6405  0.4142
  193SOL     MW  772   0.325   3.030   1.901 -0.0803  0.4859  0.2804
  194SOL     OW  773   1.334   4.008   2.610  0.3102 -0.2788 -0.0216
  194SOL    HW1  774   1.380   3.940   2.560 -0.5557 -0.6945 -0.2774
  194SOL    HW2  775   1.245   4.005   2.576  0.1893  0.7776  0.1977
  194SOL     MW  776   1.329   3.999   2.599  0.1839 -0.1968 -0.0262
  195SOL     OW  777   1.402   1.556   1.912  0.0076  0.0325 -0.0875
  195SOL    HW1  778   1.479   1.501   1.929  1.2882  1.7050 -0.2063
  195SOL    HW2  779   1.386   1.602   1.994  0.8932  1.7438 -0.8236
  195SOL     MW  780   1.410   1.555   1.925  0.2849  0.4657 -0.1970
  196SOL     OW  781   1.564   0.615   3.525 -0.2297 -0.5257  0.4854
  196SOL    HW1  782   1.653   0.588   3.544  0.0373 -0.7190 -0.9410
  196SOL    HW2  783   1.529   0.547   3.468 -0.6328  0.5063 -0.5446
  196SOL     MW  784   1.571   0.603   3.520 -0.2471 -0.4183  0.1710
  197SOL     OW  785   0.840   1.783   0.340  0.2886  0.0571  0.0155
  197SOL    HW1  786   0.856   1.874   0.316  0.5589  0.2387  0.8697
  197SOL    HW2  787   0.786   1.788   0.419 -0.8125 -0.5353 -0.6723
  197SOL     MW  788   0.835   1.795   0.347  0.1822  0.0045  0.0368
  198SOL     OW  789   1.359   1.578   4.707 -0.2990 -0.3739  0.0099
  198SOL    HW1  790   1.326   1.625   4.784  1.2007 -1.1976  1.2059
  198SOL    HW2  791   1.355   1.486   4.731  0.4634 -0.6297 -0.7743
  198SOL     MW  792   1.354   1.572   4.720 -0.0094 -0.5121  0.0626
  199SOL     OW  793   0.689   4.724   1.902  0.4454  0.7178 -0.7309
  199SOL    HW1  794   0.753   4.775   1.953 -0.2193  1.1035 -0.2555
  199SOL    HW2  795   0.715   4.633   1.914  1.9018  0.9460 -1.9295
  199SOL     MW  796   0.700   4.719   1.910  0.5467  0.7964 -0.8235
  200SOL     OW  797   4.854   3.444   5.140  0.1189  0.0681 -0.0069
  200SOL    HW1  798   4.792   3.395   5.085 -0.7413 -1.7113  2.3653
  200SOL    HW2  799   4.926   3.383   5.154 -0.5833 -0.3089  2.3455
  200SOL     MW  800   4.856   3.430   5.135 -0.0811 -0.2080  0.5979
  201SOL     OW  801   1.632   3.950   1.687 -0.2324  0.0418  0.8103
  201SOL    HW1  802   1.619   4.021   1.750 -0.2323 -0.7201  1.6995
  201SOL    HW2  803   1.724   3.927   1.696  0.0774  0.7528 -0.3907
  201SOL     MW  804   1.642   3.956   1.697 -0.1928  0.0353  0.7703
  202SOL     OW  805   3.093   1.745   2.027 -0.3745 -0.1076 -0.1315
  202SOL    HW1  806   3.056   1.789   1.950 -1.3649 -0.1014  0.3339
  202SOL    HW2  807   3.064   1.797   2.101  0.5197 -0.1538  0.2689
  202SOL     MW  808   3.085   1.757   2.026 -0.3868 -0.1128 -0.0207
  203SOL     OW  809   1.070   0.079   2.481  0.0403  0.0846 -0.2715
  203SOL    HW1  810   1.158   0.091   2.515  0.6547  4.0152 -2.6892
  203SOL    HW2  811   1.015   0.135   2.535 -0.4569 -0.1240 -0.5493
  203SOL     MW  812   1.074   0.087   2.492  0.0553  0.5610 -0.6165
  204SOL     OW  813   3.857   3.324   5.217 -0.1816 -0.1264 -0.3954
  204SOL    HW1  814   3.888   3.290   5.301  0.1690  0.3191 -0.3414
  204SOL    HW2  815   3.895   3.412   5.211 -1.8443  0.6728 -0.0728
  204SOL     MW  816   3.866   3.331   5.227 -0.3496  0.0329 -0.3472
  205SOL     OW  817   2.123   0.798   4.645  0.1063  0.0782 -0.1696
  205SOL    HW1  818   2.047   0.769   4.695 -0.4811 -1.4710 -1.8693
  205SOL    HW2  819   2.105   0.889   4.624 -2.2858 -0.7780 -2.2346
  205SOL     MW  820   2.111   0.806   4.649 -0.2751 -0.2297 -0.6515
  206SOL     OW  821   2.845   4.147   2.240  0.5260 -0.3159  0.3177
  206SOL    HW1  822   2.793   4.189   2.172  0.8694  0.1192  0.3213
  206SOL    HW2  823   2.899   4.217   2.276  1.2973 -0.8112  0.1479
  206SOL     MW  824   2.845   4.161   2.236  0.6687 -0.3236  0.2965
  207SOL     OW  825   1.492   0.718   1.315 -0.1678  0.6683 -0.2433
  207SOL    HW1  826   1.457   0.807   1.323  1.2694  1.3981 -1.5160
  207SOL    HW2  827   1.531   0.700   1.401 -0.6309  1.1725  0.0841
  207SOL     MW  828   1.492   0.727   1.327 -0.0431  0.8262 -0.3643
  208SOL     OW  829   5.239   1.747   2.630 -0.3433 -0.3219 -0.2791
  208SOL    HW1  830   5.168   1.704   2.676  1.8664 -0.9830  2.8600
  208SOL    HW2  831   5.222   1.841   2.641 -1.8890 -0.3715 -1.7240
  208SOL     MW  832   5.228   1.754   2.637 -0.2583 -0.4129 -0.0622
  209SOL     OW  833   0.655   2.705   0.867 -0.4185 -0.0050 -0.3109
  209SOL    HW1  834   0.675   2.725   0.776  0.1755 -1.6708 -0.6005
  209SOL    HW2  835   0.741   2.695   0.909 -0.6362 -1.4082 -0.1282
  209SOL     MW  836   0.669   2.706   0.861 -0.3703 -0.3979 -0.3246
  210SOL     OW  837   0.852   0.943   2.755  0.4260  0.1159  0.1364
  210SOL    HW1  838   0.812   1.023   2.788 -1.0146 -0.8944  0.9706
  210SOL    HW2  839   0.888   0.967   2.670 -0.7684  1.4306 -0.0302
  210SOL     MW  840   0.852   0.956   2.749  0.0887  0.1549  0.2219
  211SOL     OW  841   3.957   2.228   0.587 -0.8495  0.1209  0.1343
  211SOL    HW1  842   3.994   2.223   0.499  0.4408  0.6455  0.6164
  211SOL    HW2  843   3.965   2.139   0.622 -0.9176  0.0200 -0.1074
  211SOL     MW  844   3.963   2.216   0.580 -0.6930  0.1751  0.1651
  212SOL     OW  845   3.983   2.431   2.674 -0.1385  0.4538  0.0059
  212SOL    HW1  846   3.989   2.336   2.663  0.6468  0.3302  1.3095
  212SOL    HW2  847   3.940   2.443   2.758  2.0775  1.1938  1.1147
  212SOL     MW  848   3.978   2.421   2.683  0.2457  0.5327  0.3147
  213SOL     OW  849   4.747   3.350   5.366 -0.0279 -0.0117  0.2305
  213SOL    HW1  850   4.788   3.405   5.299 -1.1734 -1.6532 -1.9686
  213SOL    HW2  851   4.819   3.323   5.422  0.9033  1.8483 -0.0026
  213SOL     MW  852   4.761   3.354   5.364 -0.0554  0.0163 -0.0808
  214SOL     OW  853   3.739   4.170   2.596 -0.1010  0.0498 -0.1930
  214SOL    HW1  854   3.818   4.223   2.608  1.0748 -1.6273 -0.0638
  214SOL    HW2  855   3.765   4.103   2.533 -1.7021 -0.0478 -0.7989
  214SOL     MW  856   3.753   4.168   2.589 -0.1555 -0.1774 -0.2540
  215SOL     OW  857   2.934   2.569   0.784  1.0151 -0.1007  0.0451
  215SOL    HW1  858   2.963   2.618   0.706 -1.0832  1.1798 -0.0139
  215SOL    HW2  859   2.924   2.479   0.753  0.2191  0.3864 -1.2175
  215SOL     MW  860   2.936   2.564   0.770  0.6446  0.1256 -0.1241
  216SOL     OW  861   5.333   3.705   3.075  0.2806 -0.2164 -0.3362
  216SOL    HW1  862   5.282   3.785   3.084  0.4032  0.0897 -1.9904
  216SOL    HW2  863   5.288   3.656   3.005  1.6599 -0.3960 -1.1214
  216SOL     MW  864   5.320   3.709   3.067  0.4729 -0.2002 -0.6484
  217SOL     OW  865   1.260   4.146   0.706  0.0710  0.5798 -0.0752
  217SOL    HW1  866   1.314   4.084   0.756 -0.5024 -0.1066 -0.2925
  217SOL    HW2  867   1.174   4.105   0.702 -0.1293  1.0565 -0.8507
  217SOL     MW  868   1.256   4.133   0.712 -0.0280  0.5530 -0.2023
  218SOL     OW  869   1.098   4.821   1.187 -0.1055  0.4043 -0.2912
  218SOL    HW1  870   1.081   4.770   1.266 -0.9537 -0.5663 -1.0828
  218SOL    HW2  871   1.041   4.783   1.121  1.4743  0.3974 -1.7120
  218SOL     MW  872   1.088   4.810   1.189 -0.0119  0.2792 -0.5744
  219SOL     OW  873   4.801   2.694   2.302  0.4927 -0.7888 -0.5900
  219SOL    HW1  874   4.762   2.629   2.244  0.4385  0.3493 -1.8752
  219SOL    HW2  875   4.728   2.724   2.356  0.4687 -1.5772 -0.1579
  219SOL     MW  876   4.787   2.689   2.302  0.4827 -0.7440 -0.6992
  220SOL     OW  877   0.775   1.376   1.327 -0.2302  0.8384  0.3487
  220SOL    HW1  878   0.715   1.303   1.310 -0.9576  1.4516  0.2557
  220SOL    HW2  879   0.826   1.348   1.404  0.4415 -0.3315 -0.4852
  220SOL     MW  880   0.774   1.363   1.335 -0.2373  0.7671  0.2300
  221SOL     OW  881   5.161   0.149   0.363  0.3384  0.5688  0.2326
  221SOL    HW1  882   5.247   0.160   0.403  0.6380 -0.7911  0.0261
  221SOL    HW2  883   5.110   0.102   0.429 -0.4120  1.7773  0.5396
  221SOL     MW  884   5.165   0.144   0.377  0.2807  0.5494  0.2455
  222SOL     OW  885   2.917   3.155   4.778  0.0976 -0.0544  0.2547
  222SOL    HW1  886   2.990   3.197   4.825  1.2359 -1.0569 -0.5593
  222SOL    HW2  887   2.950   3.143   4.689 -1.2176 -0.1978 -0.2293
  222SOL     MW  888   2.930   3.159   4.773  0.0750 -0.2011  0.0886
  223SOL     OW  889   1.166   1.334   5.379  0.3686  0.0784  0.5569
  223SOL    HW1  890   1.141   1.425   5.362  0.8682  0.0809 -0.2204
  223SOL    HW2  891   1.155   1.290   5.295 -0.3719 -0.7042  1.0540
  223SOL     MW  892   1.161   1.340   5.366  0.3377 -0.0215  0.5210
  224SOL     OW  893   0.171   5.366   3.887  0.0240 -0.0474  0.9347
  224SOL    HW1  894   0.246   5.426   3.888  0.1249 -0.0846 -0.7562
  224SOL    HW2  895   0.099   5.418   3.850  0.4157 -1.1848 -1.7124
  224SOL     MW  896   0.171   5.380   3.882  0.0871 -0.1978  0.3794
  225SOL     OW  897   4.997   1.806   2.424 -0.3772  0.4687 -0.1847
  225SOL    HW1  898   5.045   1.842   2.349  0.6220 -0.7621 -0.1610
  225SOL    HW2  899   5.049   1.832   2.500 -0.2838 -0.0062 -0.0839
  225SOL     MW  900   5.010   1.814   2.424 -0.2373  0.2503 -0.1688
  226SOL     OW  901   0.893   3.714   4.980  0.1709  0.4705 -0.4060
  226SOL    HW1  902   0.868   3.669   4.900 -0.0683  0.4533 -0.3241
  226SOL    HW2  903   0.858   3.659   5.050  1.4465 -0.1742 -0.2443
  226SOL     MW  904   0.885   3.701   4.979  0.3036  0.3858 -0.3748
  227SOL     OW  905   0.091   2.434   1.052 -0.1114  0.2828  0.4371
  227SOL    HW1  906   0.023   2.486   1.010 -0.1565  0.2145  0.4253
  227SOL    HW2  907   0.142   2.397   0.980 -0.2459  0.0894  0.4404
  227SOL     MW  908   0.089   2.436   1.038 -0.1344  0.2493  0.4360
  228SOL     OW  909   4.832   5.085   2.254 -0.1182 -0.4550 -0.1418
  228SOL    HW1  910   4.748   5.052   2.222 -0.7855 -0.6320  1.6838
  228SOL    HW2  911   4.842   5.170   2.212 -0.9175 -0.6859 -0.8219
  228SOL     MW  912   4.823   5.091   2.245 -0.3060 -0.5072  0.0048
  229SOL     OW  913   4.359   1.322   0.199 -0.0722  0.5280 -0.1107
  229SOL    HW1  914   4.288   1.381   0.172 -0.1012  0.6244  0.1728
  229SOL    HW2  915   4.317   1.237   0.206 -0.0920  0.5258 -0.2434
  229SOL     MW  916   4.344   1.319   0.196 -0.0785  0.5401 -0.0914
  230SOL     OW  917   2.777   4.687   1.914  0.1810 -0.2883 -0.6916
  230SOL    HW1  918   2.708   4.635   1.955  0.9257  0.1087  1.1919
  230SOL    HW2  919   2.731   4.748   1.857 -0.7912 -2.0668 -1.9019
  230SOL     MW  920   2.762   4.688   1.912  0.1519 -0.4652 -0.6054
  231SOL     OW  921   4.930   2.738   2.677 -0.6980 -0.0544 -0.2715
  231SOL    HW1  922   5.021   2.764   2.691 -1.0205  1.0384 -0.1073
  231SOL    HW2  923   4.934   2.643   2.661  0.4694  0.0010 -0.3853
  231SOL     MW  924   4.942   2.729   2.677 -0.5898  0.0926 -0.2651
  232SOL     OW  925   1.397   4.647   0.469  0.0419 -0.0955  0.3991
  232SOL    HW1  926   1.444   4.708   0.526 -1.8008  0.5048  1.3521
  232SOL    HW2  927   1.371   4.576   0.527  1.2188 -1.3029 -0.4872
  232SOL     MW  928   1.400   4.646   0.484 -0.0433 -0.1732  0.4077
  233SOL     OW  929   2.830   2.263   2.256  0.4875 -0.3694  0.1336
  233SOL    HW1  930   2.742   2.295   2.277 -0.8491 -1.0230 -3.6805
  233SOL    HW2  931   2.837   2.180   2.303 -0.2805  0.4315  1.7277
  233SOL     MW  932   2.819   2.257   2.264  0.2181 -0.3506 -0.1506
  234SOL     OW  933   5.438   3.997   4.842 -0.1371 -0.0059  0.0745
  234SOL    HW1  934   5.504   4.059   4.811 -3.0499  2.9801 -0.7360
  234SOL    HW2  935   5.387   3.974   4.764  1.4898 -4.6073  0.0807
  234SOL     MW  936   5.440   4.002   4.828 -0.3017 -0.2127 -0.0285
  235SOL     OW  937   1.691   5.314   2.252  0.0451  0.6198 -0.3098
  235SOL    HW1  938   1.642   5.370   2.192 -0.0378  0.9619  0.0728
  235SOL    HW2  939   1.769   5.287   2.202 -0.5399  0.0431 -0.9329
  235SOL     MW  940   1.695   5.318   2.238 -0.0404  0.5897 -0.3406
  236SOL     OW  941   4.941   5.403   0.771 -0.3199 -0.1197 -0.1594
  236SOL    HW1  942   4.882   5.328   0.782  0.7178 -0.7256  1.7561
  236SOL    HW2  943   5.029   5.365   0.772  0.1915  1.0021 -0.5378
  236SOL     MW  944   4.945   5.388   0.773 -0.1216 -0.0537  0.0373
  237SOL     OW  945   5.343   4.895   2.776 -0.3419 -0.2752 -0.1557
  237SOL    HW1  946   5.405   4.917   2.706  0.1573  0.4946  0.5074
  237SOL    HW2  947   5.304   4.812   2.748  0.3882 -0.3565 -0.9882
  237SOL     MW  948   5.346   4.887   2.764 -0.1846 -0.1871 -0.1774
  238SOL     OW  949   2.649   0.595   5.183  0.3084  0.5925  0.5002
  238SOL    HW1  950   2.714   0.623   5.118  0.9236  1.6775  1.5281
  238SOL    HW2  951   2.654   0.500   5.183 -0.3681  0.4976 -1.6752
  238SOL     MW  952   2.658   0.587   5.174  0.3005  0.7193  0.3533
  239SOL     OW  953   1.114   2.506   3.181  0.1936 -0.4639  0.0862
  239SOL    HW1  954   1.098   2.597   3.157 -1.5291 -0.2370  1.8282
  239SOL    HW2  955   1.046   2.457   3.136 -0.1671 -0.6011  0.7582
  239SOL     MW  956   1.103   2.512   3.172 -0.0731 -0.4524  0.3952
  240SOL     OW  957   0.874   2.188   1.696  0.6387  0.2683 -0.4890
  240SOL    HW1  958   0.823   2.109   1.676 -1.0113  1.1514 -0.0106
  240SOL    HW2  959   0.906   2.174   1.785  1.7541 -0.5435 -1.0015
  240SOL     MW  960   0.871   2.176   1.705  0.5703  0.2774 -0.4933
  241SOL     OW  961   2.285   4.263   5.382  0.2759  0.4314 -0.4114
  241SOL    HW1  962   2.242   4.263   5.467 -0.9336  0.4980 -1.0058
  241SOL    HW2  963   2.334   4.181   5.379 -0.9958 -0.3509 -0.2999
  241SOL     MW  964   2.286   4.253   5.393 -0.0418  0.3398 -0.4732
  242SOL     OW  965   2.104   2.477   3.989 -0.2262 -0.0133 -0.6924
  242SOL    HW1  966   2.033   2.497   4.050  0.1066 -1.6677  0.3245
  242SOL    HW2  967   2.154   2.558   3.982  0.0580  0.1164  1.7562
  242SOL     MW  968   2.101   2.490   3.996 -0.1472 -0.2085 -0.2488
  243SOL     OW  969   0.990   3.393   2.535 -0.0053 -0.5150 -0.4091
  243SOL    HW1  970   1.018   3.343   2.458 -1.4970 -1.7683 -0.1952
  243SOL    HW2  971   0.990   3.329   2.606 -1.5486 -0.1250 -0.0264
  243SOL     MW  972   0.994   3.378   2.534 -0.3938 -0.6255 -0.3327
  244SOL     OW  973   4.339   2.894   4.539  0.1005  0.0904 -0.6756
  244SOL    HW1  974   4.246   2.901   4.517 -0.2249 -0.5021  0.4437
  244SOL    HW2  975   4.369   2.817   4.491 -0.9424 -2.0451  1.8680
  244SOL     MW  976   4.331   2.885   4.530 -0.0747 -0.2588 -0.2067
  245SOL     OW  977   2.416   2.900   3.951 -0.0482 -0.2478 -0.1506
  245SOL    HW1  978   2.356   2.953   3.899 -0.0903  1.5756  1.6343
  245SOL    HW2  979   2.362   2.829   3.985 -0.4997 -0.2575 -0.8797
  245SOL     MW  980   2.402   2.897   3.948 -0.1114 -0.0156 -0.0155
  246SOL     OW  981   1.734   0.174   5.000  0.2049  0.3061  0.3235
  246SOL    HW1  982   1.710   0.128   4.919  0.4831 -0.6467  0.7683
  246SOL    HW2  983   1.741   0.105   5.066  0.8041  0.9724  0.9821
  246SOL     MW  984   1.732   0.159   4.998  0.3172  0.2694  0.4648
  247SOL     OW  985   0.949   0.485   0.595 -0.6330 -0.0020  0.2382
  247SOL    HW1  986   0.949   0.580   0.580  0.0402  0.2319  1.5916
  247SOL    HW2  987   0.867   0.468   0.640 -0.6202 -0.0229  0.2533
  247SOL     MW  988   0.939   0.495   0.599 -0.5452  0.0253  0.4134
  248SOL     OW  989   0.951   1.021   0.617 -0.2806 -0.0959 -0.4990
  248SOL    HW1  990   0.976   1.105   0.577  0.2889  0.0498  0.1349
  248SOL    HW2  991   0.995   1.022   0.702 -1.9290 -0.1317  0.4003
  248SOL     MW  992   0.960   1.032   0.622 -0.4187 -0.0819 -0.3027
  249SOL     OW  993   1.693   4.044   4.647  0.0968 -0.9540 -0.1330
  249SOL    HW1  994   1.676   4.103   4.575  2.2280 -0.9029 -0.6704
  249SOL    HW2  995   1.667   4.092   4.725 -1.8521 -0.8578 -0.7985
  249SOL     MW  996   1.688   4.057   4.648  0.1201 -0.9351 -0.2870
  250SOL     OW  997   1.954   0.444   5.385  0.0064  0.7137 -0.4536
  250SOL    HW1  998   1.907   0.520   5.349 -1.0309  1.7156  2.6504
  250SOL    HW2  999   2.017   0.482   5.446  1.6136 -0.8623 -1.0627
  250SOL     MW 1000   1.956   0.459   5.389  0.0793  0.6402 -0.1343
  251SOL     OW 1001   3.045   0.618   5.378 -0.5337  0.3421  0.2707
  251SOL    HW1 1002   3.037   0.618   5.473 -0.2028 -1.4711  0.3250
  251SOL    HW2 1003   2.999   0.539   5.350 -1.7652  1.5052 -1.2091
  251SOL     MW 1004   3.038   0.608   5.386 -0.6490  0.2589  0.0882
  252SOL     OW 1005   3.229   4.327   2.228 -0.2968  0.3638  0.4008
  252SOL    HW1 1006   3.277   4.249   2.257  0.7093  0.8808  0.1831
  252SOL    HW2 1007   3.194   4.303   2.142  0.1749  0.2101  0.2478
  252SOL     MW 1008   3.231   4.314   2.221 -0.1076  0.4103  0.3533
  253SOL     OW 1009   1.151   4.587   5.130  0.5829 -0.2932  0.3857
  253SOL    HW1 1010   1.158   4.499   5.094  0.6380 -0.3142  0.4460
  253SOL    HW2 1011   1.232   4.631   5.104  0.0128  0.1364 -0.6933
  253SOL     MW 1012   1.162   4.581   5.122  0.5170 -0.2409  0.2553
  254SOL     OW 1013   5.021   0.370   1.932  0.1725 -0.4016  0.0514
  254SOL    HW1 1014   4.976   0.313   1.870 -1.0179  0.3729  0.1547
  254SOL    HW2 1015   4.995   0.336   2.018 -0.5156  0.2357  0.1133
  254SOL     MW 1016   5.012   0.358   1.935 -0.0680 -0.2209  0.0726
  255SOL     OW 1017   0.957   4.428   0.685  0.5981 -0.1349  0.2167
  255SOL    HW1 1018   0.876   4.383   0.709  0.2937  0.3597  0.1257
  255SOL    HW2 1019   0.955   4.433   0.589  1.3297 -1.2100  0.1249
  255SOL     MW 1020   0.947   4.423   0.676  0.6528 -0.2092  0.1933
  256SOL     OW 1021   2.556   3.224   5.193 -0.1859  0.1159 -0.2704
  256SOL    HW1 1022   2.609   3.205   5.271 -0.5996  0.9535  0.2285
  256SOL    HW2 1023   2.618   3.218   5.120  0.1011 -1.1769  0.0518
  256SOL     MW 1024   2.571   3.221   5.194 -0.2021  0.0577 -0.1653
  257SOL     OW 1025   4.836   2.543   1.023 -0.1458  0.1788  0.4133
  257SOL    HW1 1026   4.781   2.540   0.945  0.2755  0.0562  0.1218
  257SOL    HW2 1027   4.777   2.518   1.095 -0.6446  0.7384  0.2011
  257SOL     MW 1028   4.821   2.539   1.022 -0.1558  0.2348  0.3488
  258SOL     OW 1029   3.212   5.362   0.650  0.1800  0.5033  0.0704
  258SOL    HW1 1030   3.195   5.337   0.559  0.8727  1.0446 -0.2236
  258SOL    HW2 1031   3.131   5.343   0.696 -0.8472  1.9425 -1.0358
  258SOL     MW 1032   3.200   5.357   0.644  0.1372  0.7568 -0.1088
  259SOL     OW 1033   4.601   4.846   3.191  0.5982 -0.5083 -0.2129
  259SOL    HW1 1034   4.562   4.885   3.269  1.8302 -0.1749  0.2746
  259SOL    HW2 1035   4.585   4.752   3.199 -0.3120 -0.3500 -0.1651
  259SOL     MW 1036   4.594   4.839   3.202  0.6394 -0.4454 -0.1444
  260SOL     OW 1037   4.441   2.282   5.477 -0.2599 -0.5105  0.0337
  260SOL    HW1 1038   4.412   2.208   5.531  0.9848 -1.8363 -1.0220
  260SOL    HW2 1039   4.467   2.242   5.394  0.8051  1.0752 -0.4387
  260SOL     MW 1040   4.441   2.267   5.473  0.0358 -0.4772 -0.1619
  261SOL     OW 1041   0.461   1.146   0.110 -0.1240 -0.2600 -0.4811
  261SOL    HW1 1042   0.545   1.118   0.146  0.2960 -0.2730 -1.4419
  261SOL    HW2 1043   0.437   1.222   0.163  0.5497 -0.1906 -0.2634
  261SOL     MW 1044   0.469   1.152   0.121  0.0160 -0.2528 -0.5762
  262SOL     OW 1045   3.252   1.363   2.767  0.3626 -0.0361 -0.3684
  262SOL    HW1 1046   3.198   1.370   2.689  1.1093 -1.4360 -1.0528
  262SOL    HW2 1047   3.331   1.318   2.737  1.5514  1.1887  0.7705
  262SOL     MW 1048   3.256   1.358   2.753  0.6103 -0.0585 -0.3102
  263SOL     OW 1049   4.192   4.834   2.798 -0.0034 -0.1941 -0.4007
  263SOL    HW1 1050   4.234   4.852   2.881 -1.4166 -0.9937  0.5247
  263SOL    HW2 1051   4.263   4.836   2.734  1.2690 -0.5373  0.9545
  263SOL     MW 1052   4.206   4.837   2.800 -0.0214 -0.3404 -0.1087
  264SOL     OW 1053   2.515   2.794   0.244  0.0083  0.1903 -0.1467
  264SOL    HW1 1054   2.582   2.853   0.209 -2.4187  3.4183  0.1514
  264SOL    HW2 1055   2.458   2.776   0.169 -0.5643  0.1766  0.2876
  264SOL     MW 1056   2.517   2.800   0.230 -0.3757  0.6018 -0.0529
  265SOL     OW 1057   4.897   2.484   1.933  0.0828  0.4247 -0.2379
  265SOL    HW1 1058   4.978   2.510   1.977 -0.2446 -0.5799  1.0257
  265SOL    HW2 1059   4.827   2.509   1.993 -0.5420  1.0357 -1.1931
  265SOL     MW 1060   4.898   2.490   1.946 -0.0391  0.3743 -0.1984
  266SOL     OW 1061   4.479   3.797   3.185  0.6440  0.2039  0.2436
  266SOL    HW1 1062   4.547   3.732   3.203  0.6529 -0.0322 -0.5752
  266SOL    HW2 1063   4.398   3.747   3.186  0.6607  0.1510 -0.4906
  266SOL     MW 1064   4.477   3.782   3.187  0.6473  0.1669  0.0448
  267SOL     OW 1065   5.043   1.603   5.026 -0.3817  0.3305  0.0990
  267SOL    HW1 1066   5.136   1.591   5.046 -0.3053 -0.5159 -0.7027
  267SOL    HW2 1067   5.009   1.655   5.098  0.8010  0.9630  0.2128
  267SOL     MW 1068   5.051   1.608   5.037 -0.2205  0.3031  0.0109
  268SOL     OW 1069   0.248   2.583   3.768 -0.0378  0.1421  1.0344
  268SOL    HW1 1070   0.307   2.657   3.786  0.0570  0.2720  0.2018
  268SOL    HW2 1071   0.167   2.607   3.814 -0.0324  0.8024  0.7184
  268SOL     MW 1072   0.245   2.596   3.776 -0.0249  0.2432  0.8874
  269SOL     OW 1073   1.369   0.016   0.521 -0.1652 -0.3179  0.0586
  269SOL    HW1 1074   1.275   0.006   0.506 -0.6258  0.4984  2.0289
  269SOL    HW2 1075   1.388   0.104   0.489  0.0032 -0.5907 -0.6047
  269SOL     MW 1076   1.359   0.026   0.515 -0.2026 -0.2483  0.2259
  270SOL     OW 1077   5.314   4.294   2.841 -0.4020 -0.1513  0.1853
  270SOL    HW1 1078   5.312   4.200   2.823 -0.5857  0.0912 -1.1609
  270SOL    HW2 1079   5.222   4.319   2.845 -0.3533 -0.0460  0.6527
  270SOL     MW 1080   5.302   4.285   2.839 -0.4193 -0.1068  0.0728
  271SOL     OW 1081   3.363   5.299   2.561  0.8303  0.1439 -0.0688
  271SOL    HW1 1082   3.417   5.375   2.584  2.5350 -0.2727 -2.3459
  271SOL    HW2 1083   3.425   5.235   2.525 -0.8481 -1.4700 -0.2258
  271SOL     MW 1084   3.378   5.301   2.559  0.8337 -0.1160 -0.3804
  272SOL     OW 1085   3.312   3.358   4.250 -0.2285 -0.3104  0.4568
  272SOL    HW1 1086   3.221   3.377   4.272 -0.2642 -0.7531  0.7072
  272SOL    HW2 1087   3.363   3.403   4.316 -0.1403  1.9755 -1.0606
  272SOL     MW 1088   3.307   3.366   4.261 -0.2218 -0.0745  0.2947
  273SOL     OW 1089   1.919   1.841   0.414 -0.0300 -0.4090 -0.6358
  273SOL    HW1 1090   1.918   1.932   0.384 -2.2209 -0.0387  0.3880
  273SOL    HW2 1091   1.936   1.790   0.335  1.5776  0.8660 -1.1810
  273SOL     MW 1092   1.921   1.846   0.400 -0.1047 -0.1984 -0.5745
  274SOL     OW 1093   1.519   4.512   3.622  0.2495  0.2358 -0.1872
  274SOL    HW1 1094   1.552   4.465   3.699 -0.0760  1.0482  0.4788
  274SOL    HW2 1095   1.509   4.602   3.653  1.3819  0.8772 -1.5740
  274SOL     MW 1096   1.522   4.518   3.636  0.3528  0.4219 -0.2795
  275SOL     OW 1097   3.530   4.242   3.675 -0.2904 -0.1411  1.1196
  275SOL    HW1 1098   3.485   4.318   3.711  1.0310  2.2779 -1.9509
  275SOL    HW2 1099   3.491   4.228   3.589 -0.1965 -2.7416  1.4116
  275SOL     MW 1100   3.519   4.250   3.669 -0.1092 -0.1643  0.7639
  276SOL     OW 1101   4.089   4.122   0.015 -0.2707 -0.2036  0.0326
  276SOL    HW1 1102   4.066   4.207  -0.022  2.9411  0.8225  0.0666
  276SOL    HW2 1103   4.066   4.129   0.108  1.3779  1.3114  0.3837
  276SOL     MW 1104   4.083   4.133   0.023  0.3515  0.1217  0.0819
  277SOL     OW 1105   5.272   2.732   2.008 -0.6208 -0.3135 -0.0086
  277SOL    HW1 1106   5.283   2.758   1.916 -0.5678 -0.0724  0.0657
  277SOL    HW2 1107   5.295   2.810   2.058 -1.4147 -0.1917  0.1910
  277SOL     MW 1108   5.276   2.745   2.002 -0.7156 -0.2671  0.0265
  278SOL     OW 1109   2.146   4.065   0.662 -0.0517  0.0257 -0.3369
  278SOL    HW1 1110   2.226   4.099   0.702  0.3372 -0.7141 -0.4661
  278SOL    HW2 1111   2.105   4.141   0.621  0.3165  0.5085  0.1766
  278SOL     MW 1112   2.151   4.079   0.662  0.0452 -0.0072 -0.2877
  279SOL     OW 1113   2.971   4.385   2.986  0.4253 -0.5956  0.5978
  279SOL    HW1 1114   3.008   4.342   3.063 -1.2546 -0.9435  1.2339
  279SOL    HW2 1115   3.036   4.370   2.917  1.0469 -1.9565  1.4456
  279SOL     MW 1116   2.984   4.377   2.987  0.2898 -0.8143  0.7878
  280SOL     OW 1117   3.015   0.061   3.533  0.3959  0.1541  0.2986
  280SOL    HW1 1118   3.045   0.150   3.512 -1.8713  0.7306 -0.7157
  280SOL    HW2 1119   2.966   0.071   3.615 -0.3028 -0.0483 -0.0866
  280SOL     MW 1120   3.013   0.074   3.541  0.0162  0.2020  0.1195
  281SOL     OW 1121   5.284   0.569   1.568  0.2889 -0.2396  0.4534
  281SOL    HW1 1122   5.282   0.657   1.605  1.3400 -0.4252  0.9966
  281SOL    HW2 1123   5.279   0.511   1.644  0.5763 -0.6405  0.1729
  281SOL     MW 1124   5.283   0.573   1.583  0.4602 -0.3146  0.4870
  282SOL     OW 1125   4.951   2.804   0.763 -0.1054 -0.0137 -0.2849
  282SOL    HW1 1126   4.987   2.729   0.716 -1.2787 -0.9774  0.2882
  282SOL    HW2 1127   4.995   2.802   0.848  0.2426  0.2594 -0.4591
  282SOL     MW 1128   4.961   2.794   0.768 -0.2111 -0.1021 -0.2339
  283SOL     OW 1129   4.499   0.034   1.255  0.3993  0.0488 -0.2699
  283SOL    HW1 1130   4.508   0.084   1.174 -0.3450 -1.4635 -1.3471
  283SOL    HW2 1131   4.437   0.084   1.307  0.9603  1.0953 -0.5694
  283SOL     MW 1132   4.492   0.046   1.251  0.3759 -0.0108 -0.4461
  284SOL     OW 1133   0.610   4.685   4.432 -0.3443 -0.7401  0.1326
  284SOL    HW1 1134   0.651   4.752   4.487 -0.2604  0.4863 -1.3599
  284SOL    HW2 1135   0.596   4.611   4.491 -0.1861  0.4804  1.7804
  284SOL     MW 1136   0.613   4.684   4.447 -0.3133 -0.4269  0.1525
  285SOL     OW 1137   0.949   1.505   2.405  0.1226  0.3082 -0.0651
  285SOL    HW1 1138   0.937   1.483   2.497  0.8023  1.5902  0.3574
  285SOL    HW2 1139   1.044   1.504   2.393  0.0561  0.5295 -0.6408
  285SOL     MW 1140   0.960   1.502   2.415  0.2011  0.5006 -0.0847
  286SOL     OW 1141   1.308   5.244   1.166  0.2043  0.6690 -0.4753
  286SOL    HW1 1142   1.391   5.199   1.146 -0.9567 -1.6918 -0.3008
  286SOL    HW2 1143   1.317   5.272   1.257  0.7965  0.4352 -0.4594
  286SOL     MW 1144   1.320   5.242   1.175  0.1315  0.3369 -0.4509
  287SOL     OW 1145   1.361   1.042   5.461 -0.2008 -0.3144  0.4108
  287SOL    HW1 1146   1.287   1.090   5.497  0.6867  1.4502 -0.0041
  287SOL    HW2 1147   1.330   1.008   5.377 -0.8501 -0.4587  0.7110
  287SOL     MW 1148   1.348   1.044   5.454 -0.1703 -0.1069  0.3961
  288SOL     OW 1149   1.625   1.959   5.451  0.2098 -0.2357 -0.5352
  288SOL    HW1 1150   1.700   1.985   5.398  1.3259 -0.4804  0.8725
  288SOL    HW2 1151   1.654   1.881   5.497 -0.5146  0.2911  0.8645
  288SOL     MW 1152   1.638   1.952   5.450  0.2599 -0.1996 -0.1758
  289SOL     OW 1153   4.048   1.395   5.298  0.3524 -0.2626  0.0040
  289SOL    HW1 1154   4.115   1.461   5.314  1.6630 -1.0973 -1.6690
  289SOL    HW2 1155   4.046   1.343   5.378  1.4164  0.0416  0.2447
  289SOL     MW 1156   4.056   1.397   5.310  0.6564 -0.3305 -0.1793
  290SOL     OW 1157   0.266   2.427   4.553  0.4023 -0.0873 -0.0078
  290SOL    HW1 1158   0.267   2.331   4.556  2.2944 -0.1536 -0.9192
  290SOL    HW2 1159   0.237   2.453   4.640  1.8466 -1.5226  0.9603
  290SOL     MW 1160   0.263   2.418   4.565  0.8294 -0.2795 -0.0005
  291SOL     OW 1161   4.443   0.998   4.091 -0.0089  0.2353  0.6395
  291SOL    HW1 1162   4.378   0.998   4.161 -0.9511  1.7800 -0.1825
  291SOL    HW2 1163   4.400   1.042   4.018  1.1856 -0.7185 -0.7015
  291SOL     MW 1164   4.429   1.004   4.091  0.0234  0.3110  0.3626
  292SOL     OW 1165   1.203   4.082   5.061 -0.4317 -0.1865  0.0541
  292SOL    HW1 1166   1.213   3.991   5.035  0.8113  0.1370 -0.6921
  292SOL    HW2 1167   1.111   4.090   5.087 -1.2310 -1.0560 -2.2683
  292SOL     MW 1168   1.193   4.072   5.061 -0.3749 -0.2564 -0.3387
  293SOL     OW 1169   0.778   0.864   2.475  0.3760  0.0090  0.4363
  293SOL    HW1 1170   0.689   0.834   2.458  0.1277  0.4945  0.8592
  293SOL    HW2 1171   0.786   0.945   2.424  1.2645 -1.0763 -1.2382
  293SOL     MW 1172   0.768   0.871   2.466  0.4579 -0.0678  0.2761
  294SOL     OW 1173   5.167   5.342   4.354  0.3813  0.1383 -0.1428
  294SOL    HW1 1174   5.079   5.309   4.339  0.2972  0.7870 -1.1054
  294SOL    HW2 1175   5.158   5.403   4.428  0.1625 -0.3445  0.2335
  294SOL     MW 1176   5.155   5.346   4.362  0.3425  0.1595 -0.2178
  295SOL     OW 1177   2.915   5.414   2.986  0.4054 -0.4892 -0.2718
  295SOL    HW1 1178   2.843   5.460   2.943 -0.0451 -1.5610 -0.6903
  295SOL    HW2 1179   2.950   5.478   3.049 -0.3553  0.3327 -0.6618
  295SOL     MW 1180   2.910   5.428   2.989  0.2503 -0.5212 -0.3753
  296SOL     OW 1181   0.641   4.994   3.532 -0.3160  0.2285  0.5392
  296SOL    HW1 1182   0.572   4.929   3.538  1.1764 -1.4836  0.1477
  296SOL    HW2 1183   0.625   5.040   3.450 -1.6730  0.7138  1.0576
  296SOL     MW 1184   0.630   4.992   3.523 -0.2987  0.0714  0.5555
  297SOL     OW 1185   5.481   3.787   0.845  0.1730  0.7715 -0.9603
  297SOL    HW1 1186   5.429   3.728   0.792 -1.1106  1.1425 -0.1629
  297SOL    HW2 1187   5.440   3.785   0.932  1.6131  0.9251 -0.2383
  297SOL     MW 1188   5.469   3.779   0.850  0.1930  0.8386 -0.7658
  298SOL     OW 1189   1.374   4.251   3.958  0.3871  0.8569 -0.5138
  298SOL    HW1 1190   1.340   4.252   3.868  1.6139  0.2824 -1.0140
  298SOL    HW2 1191   1.327   4.179   4.000 -0.2591  1.1829 -0.6692
  298SOL     MW 1192   1.363   4.242   3.952  0.4614  0.8251 -0.5977
  299SOL     OW 1193   0.001   2.116   3.516  0.2317  0.5220  0.0581
  299SOL    HW1 1194   0.095   2.102   3.503  0.0798  0.2754 -0.9235
  299SOL    HW2 1195  -0.005   2.174   3.591  1.2905  2.4613 -1.2536
  299SOL     MW 1196   0.012   2.121   3.524  0.3478  0.7387 -0.2355
  300SOL     OW 1197   4.454   1.449   3.542 -0.4189  0.0883 -0.1200
  300SOL    HW1 1198   4.429   1.480   3.629  0.0383 -0.6419  0.2843
  300SOL    HW2 1199   4.503   1.369   3.558 -0.7268 -0.3139 -1.0855
  300SOL     MW 1200   4.457   1.443   3.555 -0.3998 -0.0567 -0.1919
  301SOL     OW 1201   4.851   0.750   1.162  0.2889 -0.2626  0.1374
  301SOL    HW1 1202   4.946   0.756   1.160  0.3268 -0.4502  0.9220
  301SOL    HW2 1203   4.830   0.669   1.114  0.5922 -0.7263  0.7692
  301SOL     MW 1204   4.860   0.740   1.155  0.3325 -0.3460  0.3187
  302SOL     OW 1205   3.353   5.169   5.370  0.0166  0.1285 -0.4368
  302SOL    HW1 1206   3.355   5.263   5.390  0.0492 -0.1009  0.7297
  302SOL    HW2 1207   3.350   5.126   5.456  2.1138 -1.0007 -0.8519
  302SOL     MW 1208   3.353   5.175   5.384  0.2892 -0.0454 -0.3406
  303SOL     OW 1209   4.417   1.722   4.701  0.7960  0.3716 -0.1213
  303SOL    HW1 1210   4.379   1.658   4.641  1.3337  0.1678 -0.2562
  303SOL    HW2 1211   4.398   1.807   4.660  1.2636  0.2295 -0.6550
  303SOL     MW 1212   4.410   1.725   4.688  0.9247  0.3273 -0.2069
  304SOL     OW 1213   5.008   3.886   2.228 -0.1049  0.0258 -0.5725
  304SOL    HW1 1214   4.951   3.814   2.253  0.4177 -0.6843 -1.3674
  304SOL    HW2 1215   4.958   3.965   2.248 -0.4666 -0.5332  0.8375
  304SOL     MW 1216   4.994   3.887   2.234 -0.0843 -0.1367 -0.4938
  305SOL     OW 1217   2.923   3.708   3.583  0.4371  1.1856  0.4414
  305SOL    HW1 1218   2.942   3.673   3.496  1.7249  1.0987  0.7440
  305SOL    HW2 1219   2.983   3.782   3.594 -1.4433  2.8362  0.2759
  305SOL     MW 1220   2.933   3.713   3.574  0.3613  1.3858  0.4590
  306SOL     OW 1221   4.308   0.376   5.011  0.3715 -0.1725  0.3982
  306SOL    HW1 1222   4.380   0.316   4.992  2.6265  2.5749 -0.4779
  306SOL    HW2 1223   4.246   0.362   4.940  0.6342 -1.7332  0.4579
  306SOL     MW 1224   4.309   0.367   4.999  0.6938 -0.0206  0.2937
  307SOL     OW 1225   1.932   2.137   0.354 -0.4213  0.1823 -0.3604
  307SOL    HW1 1226   2.027   2.132   0.346 -0.4883 -0.5852 -0.7998
  307SOL    HW2 1227   1.917   2.150   0.448  0.1432  1.4655 -0.4272
  307SOL     MW 1228   1.942   2.138   0.365 -0.3577  0.2483 -0.4252
  308SOL     OW 1229   0.890   2.550   4.996 -0.0034  0.7415 -0.1510
  308SOL    HW1 1230   0.797   2.543   4.978 -0.3773  2.1938  0.9968
  308SOL    HW2 1231   0.912   2.641   4.973  1.4213  0.1056 -1.5494
  308SOL     MW 1232   0.881   2.561   4.991  0.1311  0.8460 -0.1831
  309SOL     OW 1233   4.291   2.591   3.161 -0.1741 -0.6911 -0.0136
  309SOL    HW1 1234   4.277   2.529   3.233 -2.5649  0.1269  0.2917
  309SOL    HW2 1235   4.218   2.575   3.101 -0.1628  1.0063 -0.5219
  309SOL     MW 1236   4.280   2.581   3.162 -0.4787 -0.3691 -0.0395
  310SOL     OW 1237   4.969   0.683   1.842  0.2144 -0.1644 -0.4886
  310SOL    HW1 1238   4.904   0.707   1.909  1.7617 -0.0503  1.0424
  310SOL    HW2 1239   4.957   0.589   1.831 -1.6029  0.1663 -1.8218
  310SOL     MW 1240   4.959   0.674   1.849  0.1799 -0.1074 -0.4633
  311SOL     OW 1241   5.453   5.105   2.957 -0.1589 -0.0628  0.2518
  311SOL    HW1 1242   5.412   5.057   2.885 -0.5990 -0.1964  0.5809
  311SOL    HW2 1243   5.479   5.037   3.019 -1.0933  0.1298  0.8777
  311SOL     MW 1244   5.451   5.090   2.956 -0.3348 -0.0553  0.3741
  312SOL     OW 1245   2.690   4.023   3.075 -0.4280 -0.1421 -0.0537
  312SOL    HW1 1246   2.612   3.990   3.031 -0.4557 -0.1140 -0.0258
  312SOL    HW2 1247   2.662   4.041   3.165 -0.7493  1.1690 -0.3924
  312SOL     MW 1248   2.677   4.021   3.081 -0.4727  0.0293 -0.0935
  313SOL     OW 1249   2.906   5.400   2.017 -0.4117 -0.1668  0.1128
  313SOL    HW1 1250   2.867   5.421   2.101 -2.9386 -0.1220 -0.9630
  313SOL    HW2 1251   2.934   5.309   2.025  0.3669  0.1538  1.2933
  313SOL     MW 1252   2.905   5.391   2.028 -0.6355 -0.1200  0.1262
  314SOL     OW 1253   0.882   0.834   0.159 -0.0760  0.8745  0.0861
  314SOL    HW1 1254   0.818   0.766   0.180 -0.5636  1.3460  0.1637
  314SOL    HW2 1255   0.910   0.813   0.070 -0.2804  0.6153  0.0808
  314SOL     MW 1256   0.877   0.823   0.150 -0.1646  0.9017  0.0953
  315SOL     OW 1257   1.703   2.988   3.997  0.5346  0.0199  0.1432
  315SOL    HW1 1258   1.646   2.979   3.921 -2.0364  1.7742  1.7270
  315SOL    HW2 1259   1.771   3.049   3.969 -0.5535  0.9007 -0.6704
  315SOL     MW 1260   1.705   2.994   3.984  0.0662  0.3572  0.2418
  316SOL     OW 1261   3.212   3.428   2.795  0.1564 -0.6579  0.1169
  316SOL    HW1 1262   3.208   3.520   2.770  0.9480 -0.7177 -0.2556
  316SOL    HW2 1263   3.301   3.416   2.829  0.6598 -1.6769 -1.4489
  316SOL     MW 1264   3.223   3.438   2.796  0.3221 -0.7960 -0.1312
  317SOL     OW 1265   0.476   1.801   1.191  0.2328  0.5452 -0.2843
  317SOL    HW1 1266   0.511   1.729   1.243 -2.1942 -0.3142  0.2997
  317SOL    HW2 1267   0.459   1.871   1.254 -1.6927 -0.1023 -0.0174
  317SOL     MW 1268   0.479   1.801   1.206 -0.3243  0.3523 -0.1754
  318SOL     OW 1269   0.203   4.701   1.067  0.5751  0.5961 -0.1177
  318SOL    HW1 1270   0.180   4.669   0.980 -0.0297 -0.6492  0.4771
  318SOL    HW2 1271   0.251   4.629   1.108 -0.1242  0.7162  0.9741
  318SOL     MW 1272   0.206   4.687   1.061  0.4082  0.4521  0.0982
  319SOL     OW 1273   4.162   1.921   0.064 -0.0499  0.1364  0.3338
  319SOL    HW1 1274   4.221   1.960   0.129  0.0773 -0.7035  0.7366
  319SOL    HW2 1275   4.114   1.996   0.028 -0.3067  0.5965  1.5741
  319SOL     MW 1276   4.164   1.936   0.068 -0.0665  0.0878  0.5441
  320SOL     OW 1277   0.250   2.278   0.028 -0.3101 -0.0013  0.0202
  320SOL    HW1 1278   0.278   2.331   0.102  0.4287  0.3074 -0.4584
  320SOL    HW2 1279   0.330   2.232   0.001 -0.0961  1.2408 -1.6732
  320SOL     MW 1280   0.264   2.279   0.034 -0.1881  0.1972 -0.2578
  321SOL     OW 1281   4.263   1.614   4.906 -0.1845 -0.4171 -0.0176
  321SOL    HW1 1282   4.319   1.652   4.838  1.0599 -2.4975 -0.2326
  321SOL    HW2 1283   4.179   1.600   4.862  0.1415 -0.3254 -0.6873
  321SOL     MW 1284   4.259   1.617   4.892  0.0166 -0.6717 -0.1309
  322SOL     OW 1285   1.390   0.478   2.134 -0.2243 -0.4017  0.1214
  322SOL    HW1 1286   1.300   0.458   2.157 -0.7485 -0.1219 -1.5474
  322SOL    HW2 1287   1.429   0.511   2.215 -1.4040 -1.1913  1.0409
  322SOL     MW 1288   1.384   0.479   2.147 -0.4424 -0.4670  0.0255
  323SOL     OW 1289   0.306   0.656   3.945 -0.3792  0.1235 -0.0340
  323SOL    HW1 1290   0.278   0.579   3.993 -0.1555  0.1986  0.2188
  323SOL    HW2 1291   0.228   0.685   3.897 -1.5344  1.8536  2.6522
  323SOL     MW 1292   0.292   0.650   3.945 -0.4985  0.3546  0.3422
  324SOL     OW 1293   2.332   4.290   4.890 -0.0785  0.3157  0.9098
  324SOL    HW1 1294   2.419   4.310   4.924 -0.2035  1.7741  0.4319
  324SOL    HW2 1295   2.327   4.195   4.892  2.4822 -0.0000 -1.3376
  324SOL     MW 1296   2.342   4.281   4.894  0.2333  0.4620  0.5609
  325SOL     OW 1297   0.841   1.377   0.676  0.2499 -0.1140  0.0204
  325SOL    HW1 1298   0.915   1.361   0.618  0.6761  2.6219 -0.3228
  325SOL    HW2 1299   0.764   1.370   0.619  0.6620  2.5436 -1.0303
  325SOL     MW 1300   0.841   1.374   0.661  0.3572  0.5764 -0.1580
  326SOL     OW 1301   0.841   5.139   5.231  0.4260 -0.2161  0.3063
  326SOL    HW1 1302   0.835   5.214   5.172  0.2792 -0.6491 -0.2360
  326SOL    HW2 1303   0.848   5.178   5.318  0.1703  0.4260  0.0473
  326SOL     MW 1304   0.841   5.154   5.234  0.3745 -0.1893  0.2038
  327SOL     OW 1305   4.628   4.042   4.754  0.1635  0.0176  0.5042
  327SOL    HW1 1306   4.578   4.018   4.676  0.1014  0.7939  0.3029
  327SOL    HW2 1307   4.615   3.968   4.814  0.4039 -0.6917 -0.3039
  327SOL     MW 1308   4.620   4.029   4.752  0.1863  0.0262  0.3750
  328SOL     OW 1309   1.011   4.431   1.780  0.3023 -0.5100 -0.5953
  328SOL    HW1 1310   0.976   4.456   1.694 -1.0714 -0.9659 -0.1832
  328SOL    HW2 1311   1.056   4.348   1.764 -0.1973 -0.7405 -0.8315
  328SOL     MW 1312   1.012   4.424   1.767  0.0625 -0.5979 -0.5728
  329SOL     OW 1313   0.765   0.462   1.259 -0.0713 -0.2208 -0.5487
  329SOL    HW1 1314   0.809   0.468   1.344 -0.7381 -2.3608  0.0209
  329SOL    HW2 1315   0.798   0.381   1.220  2.1686  1.9143 -3.5878
  329SOL     MW 1316   0.775   0.453   1.265  0.1301 -0.2214 -0.8648
  330SOL     OW 1317   2.779   4.735   5.341 -0.0625 -0.2252 -0.0555
  330SOL    HW1 1318   2.706   4.675   5.325 -0.2113 -0.0686  0.0404
  330SOL    HW2 1319   2.845   4.710   5.276 -0.5353  0.1943 -0.6975
  330SOL     MW 1320   2.778   4.724   5.331 -0.1421 -0.1515 -0.1254
  331SOL     OW 1321   0.501   0.264   2.713 -0.8111 -0.0085 -0.4593
  331SOL    HW1 1322   0.595   0.245   2.716 -0.8894 -0.2244  1.3692
  331SOL    HW2 1323   0.491   0.321   2.637  0.6604 -0.6568 -1.1870
  331SOL     MW 1324   0.512   0.269   2.704 -0.6327 -0.1192 -0.3184
  332SOL     OW 1325   3.207   2.699   0.478 -0.0453 -0.0047 -0.1439
  332SOL    HW1 1326   3.153   2.745   0.542 -0.5408  1.8692 -1.8087
  332SOL    HW2 1327   3.181   2.607   0.487 -1.6633  0.5027  0.8697
  332SOL     MW 1328   3.197   2.693   0.487 -0.3158  0.3001 -0.2273
  333SOL     OW 1329   4.919   3.106   2.338  0.2434 -0.7251  0.2006
  333SOL    HW1 1330   4.961   3.022   2.317 -0.0147 -0.4477 -1.6618
  333SOL    HW2 1331   4.825   3.086   2.337  0.2153 -0.6112  0.7087
  333SOL     MW 1332   4.912   3.093   2.335  0.2068 -0.6750  0.0272
  334SOL     OW 1333   3.234   1.708   0.532  0.6032  0.5808 -0.3147
  334SOL    HW1 1334   3.190   1.651   0.595 -1.2432  1.9358 -0.3037
  334SOL    HW2 1335   3.250   1.789   0.579  2.6889  0.3294 -0.5000
  334SOL     MW 1336   3.230   1.711   0.546  0.6338  0.7221 -0.3370
  335SOL     OW 1337   0.708   1.976   1.654 -0.2429  0.0934  0.3613
  335SOL    HW1 1338   0.620   1.996   1.623  0.4500  0.4138 -1.5282
  335SOL    HW2 1339   0.695   1.907   1.720 -1.8221 -0.5592 -0.5648
  335SOL     MW 1340   0.695   1.970   1.659 -0.3564  0.0509  0.0009
  336SOL     OW 1341   0.927   0.416   3.859 -0.1389  0.7504  0.6878
  336SOL    HW1 1342   0.938   0.374   3.945  1.5797 -0.7593 -0.2101
  336SOL    HW2 1343   0.963   0.504   3.871 -0.8290  0.9129  1.7465
  336SOL     MW 1344   0.933   0.422   3.872 -0.0072  0.5780  0.7084
  337SOL     OW 1345   2.778   4.357   3.714  0.1770  0.1303 -0.5001
  337SOL    HW1 1346   2.755   4.267   3.694 -0.1325 -0.3081  1.6326
  337SOL    HW2 1347   2.864   4.352   3.756  1.0885  1.0713 -2.1187
  337SOL     MW 1348   2.786   4.345   3.716  0.2541  0.1946 -0.4343
  338SOL     OW 1349   1.466   3.073   2.432 -0.6069 -0.0686 -0.5587
  338SOL    HW1 1350   1.533   3.011   2.404  0.3870  1.1725 -1.0765
  338SOL    HW2 1351   1.439   3.116   2.351  0.4685  1.8103  0.0157
  338SOL     MW 1352   1.471   3.071   2.418 -0.3420  0.3308 -0.5515
  339SOL     OW 1353   0.956   1.821   5.345 -0.2535 -0.1798 -0.1925
  339SOL    HW1 1354   0.877   1.829   5.398  0.2532  0.0129  0.5435
  339SOL    HW2 1355   0.924   1.815   5.255 -1.0767  0.7204  0.0214
  339SOL     MW 1356   0.942   1.821   5.340 -0.2940 -0.0399 -0.0709
  340SOL     OW 1357   2.535   1.932   0.569 -0.1148  0.4349 -0.4550
  340SOL    HW1 1358   2.528   1.866   0.638  2.2114  0.5759 -0.0008
  340SOL    HW2 1359   2.450   1.930   0.526 -0.6968 -1.6586  0.6274
  340SOL     MW 1360   2.523   1.923   0.572  0.1085  0.1849 -0.2583
  341SOL     OW 1361   2.611   4.873   2.522  0.5312  0.2614 -0.2378
  341SOL    HW1 1362   2.693   4.874   2.571  0.4387  1.0285 -0.0833
  341SOL    HW2 1363   2.618   4.796   2.465 -0.0773 -1.7011  2.1658
  341SOL     MW 1364   2.622   4.863   2.521  0.4414  0.1084  0.0897
  342SOL     OW 1365   1.917   4.768   5.237  0.2591 -0.0409  0.2721
  342SOL    HW1 1366   1.963   4.823   5.174 -0.3116 -0.1983 -0.3024
  342SOL    HW2 1367   1.986   4.726   5.289  0.8572 -1.4359 -1.5414
  342SOL     MW 1368   1.931   4.769   5.236  0.2626 -0.2396 -0.0336
  343SOL     OW 1369   4.327   1.581   2.758  0.0310 -0.3359  0.0693
  343SOL    HW1 1370   4.233   1.581   2.777 -0.0487  1.3767 -0.1915
  343SOL    HW2 1371   4.368   1.614   2.838  0.2225  0.8058 -0.4747
  343SOL     MW 1372   4.320   1.585   2.771  0.0453  0.0295 -0.0337
  344SOL     OW 1373   2.430   0.203   0.255 -0.0525  1.0493 -0.4643
  344SOL    HW1 1374   2.519   0.168   0.256 -0.2585  0.5188 -0.1026
  344SOL    HW2 1375   2.421   0.247   0.340 -0.0549  1.3053 -0.5977
  344SOL     MW 1376   2.440   0.204   0.266 -0.0792  1.0142 -0.4351
  345SOL     OW 1377   0.055   1.803   2.971 -0.1124  0.3754  0.4375
  345SOL    HW1 1378   0.052   1.712   2.941  1.1676 -0.0387  1.4620
  345SOL    HW2 1379   0.101   1.850   2.902 -1.1632  0.3581 -0.3008
  345SOL     MW 1380   0.061   1.797   2.959 -0.0830  0.3202  0.4742
  346SOL     OW 1381   0.476   0.309   2.350 -0.3737  0.0786 -0.0076
  346SOL    HW1 1382   0.490   0.297   2.256 -3.5046 -1.8811 -0.3807
  346SOL    HW2 1383   0.456   0.402   2.361  0.7265  0.4706 -1.1019
  346SOL     MW 1384   0.476   0.319   2.340 -0.6337 -0.1221 -0.1955
  347SOL     OW 1385   2.589   0.910   1.878 -0.5535  0.6069 -0.0084
  347SOL    HW1 1386   2.566   0.993   1.836 -1.9668  0.7308  0.9107
  347SOL    HW2 1387   2.661   0.933   1.937  0.9522  0.5723 -1.7660
  347SOL     MW 1388   2.595   0.924   1.880 -0.5416  0.6183 -0.1158
  348SOL     OW 1389   0.372   2.329   2.261  0.5760  0.0880 -0.1403
  348SOL    HW1 1390   0.339   2.367   2.179  1.2965 -0.9996 -0.9650
  348SOL    HW2 1391   0.318   2.251   2.273  3.6599 -2.6523 -2.3751
  348SOL     MW 1392   0.361   2.324   2.252  1.0630 -0.4020 -0.5320
  349SOL     OW 1393   2.470   4.605   4.312  0.4792  0.8111  0.2147
  349SOL    HW1 1394   2.460   4.632   4.221  0.2757  1.5806  0.4497
  349SOL    HW2 1395   2.408   4.533   4.323  1.2180  0.0385 -0.5068
  349SOL     MW 1396   2.461   4.600   4.302  0.5477  0.8107  0.1524
  350SOL     OW 1397   2.522   1.551   5.226  0.2376  0.1002  0.1987
  350SOL    HW1 1398   2.452   1.584   5.281 -0.3234 -0.7953  0.0454
  350SOL    HW2 1399   2.492   1.464   5.198  1.2590 -0.1635 -0.1331
  350SOL     MW 1400   2.509   1.544   5.229  0.2965 -0.0482  0.1366
  351SOL     OW 1401   4.095   2.250   4.016  0.1135 -0.8118 -0.1112
  351SOL    HW1 1402   4.081   2.162   3.981  1.4241 -1.7365  1.5125
  351SOL    HW2 1403   4.095   2.307   3.939  0.5796 -2.4038 -1.3547
  351SOL     MW 1404   4.093   2.246   4.002  0.3409 -1.1340 -0.0625
  352SOL     OW 1405   3.814   2.969   5.271 -0.5875  0.3596 -0.0240
  352SOL    HW1 1406   3.879   3.035   5.295 -0.7839  0.4376  0.3023
  352SOL    HW2 1407   3.866   2.895   5.239 -0.3851  0.8277 -0.8045
  352SOL     MW 1408   3.829   2.968   5.270 -0.5867  0.4295 -0.0822
  353SOL     OW 1409   4.606   5.007   3.425  0.5275 -0.1206  0.0228
  353SOL    HW1 1410   4.574   5.094   3.401 -0.6563 -0.4023  0.4697
  353SOL    HW2 1411   4.696   5.021   3.454  1.3553  0.5216 -2.5949
  353SOL     MW 1412   4.613   5.020   3.425  0.4819 -0.0744 -0.2551
  354SOL     OW 1413   3.838   2.566   4.672  0.5716 -1.0143  0.0762
  354SOL    HW1 1414   3.866   2.530   4.588  0.6095 -1.1953  0.1666
  354SOL    HW2 1415   3.918   2.570   4.724  0.9536  0.9720 -0.5663
  354SOL     MW 1416   3.852   2.562   4.668  0.6253 -0.7832  0.0055
  355SOL     OW 1417   0.750   0.929   3.495  0.6133 -0.4794  0.3374
  355SOL    HW1 1418   0.746   1.021   3.522  0.7372 -0.1195 -0.7876
  355SOL    HW2 1419   0.799   0.885   3.565 -1.4089 -0.1590  2.0305
  355SOL     MW 1420   0.756   0.935   3.507  0.3703 -0.3923  0.4101
  356SOL     OW 1421   0.793   1.425   5.357  0.5159 -0.1470  0.0125
  356SOL    HW1 1422   0.862   1.481   5.321 -0.7721 -0.0266 -2.4791
  356SOL    HW2 1423   0.755   1.477   5.427  0.8736  1.1570 -0.7241
  356SOL     MW 1424   0.797   1.439   5.361  0.3968  0.0354 -0.4007
  357SOL     OW 1425   1.678   3.478   2.585  0.2758 -0.2787 -0.3524
  357SOL    HW1 1426   1.697   3.469   2.678  0.3733 -0.3509 -0.3784
  357SOL    HW2 1427   1.585   3.498   2.581  0.2373 -0.4339 -0.2476
  357SOL     MW 1428   1.669   3.480   2.596  0.2833 -0.3078 -0.3423
  358SOL     OW 1429   0.404   4.971   5.040 -0.0493 -0.3199  0.3264
  358SOL    HW1 1430   0.341   4.976   4.968  1.0962  2.2197 -0.5998
  358SOL    HW2 1431   0.389   4.884   5.078 -0.6558 -1.8268 -2.9889
  358SOL     MW 1432   0.394   4.960   5.036  0.0197 -0.1877 -0.2165
  359SOL     OW 1433   0.497   1.623   3.064  0.0416 -0.2543  0.1816
  359SOL    HW1 1434   0.526   1.538   3.032 -0.8341 -0.5796  0.2201
  359SOL    HW2 1435   0.467   1.670   2.986  0.5846  0.0484  0.1512
  359SOL     MW 1436   0.497   1.619   3.050 -0.0010 -0.2572  0.1826
  360SOL     OW 1437   1.322   0.925   0.323 -0.1612  0.3289  0.2173
  360SOL    HW1 1438   1.352   0.925   0.414  0.3089 -1.1806  0.0775
  360SOL    HW2 1439   1.226   0.930   0.329 -0.1013  1.0864  0.7538
  360SOL     MW 1440   1.313   0.926   0.336 -0.0934  0.2326  0.2681
  361SOL     OW 1441   4.801   1.413   0.132  0.1314  0.1116  0.0666
  361SOL    HW1 1442   4.763   1.325   0.141  0.1732  0.1344  0.4845
  361SOL    HW2 1443   4.864   1.419   0.204 -0.0255  0.5624  0.1679
  361SOL     MW 1444   4.804   1.402   0.142  0.1167  0.1722  0.1331
  362SOL     OW 1445   4.888   2.683   4.421 -0.4984 -0.1210  0.2979
  362SOL    HW1 1446   4.823   2.623   4.458 -0.4331  0.2740  1.0607
  362SOL    HW2 1447   4.837   2.738   4.361 -0.6430 -0.6142 -0.0482
  362SOL     MW 1448   4.873   2.682   4.418 -0.5085 -0.1336  0.3513
  363SOL     OW 1449   4.972   2.167   1.312 -0.1275 -0.0819  0.3166
  363SOL    HW1 1450   4.893   2.205   1.274  0.7078  0.7525 -0.6210
  363SOL    HW2 1451   5.037   2.236   1.307  1.0864 -1.2290 -0.2612
  363SOL     MW 1452   4.970   2.181   1.307  0.1348 -0.1220  0.1226
  364SOL     OW 1453   1.217   3.141   0.864 -0.0155  0.1024  0.2164
  364SOL    HW1 1454   1.303   3.166   0.830 -0.6240  0.0014 -1.5190
  364SOL    HW2 1455   1.223   3.046   0.876 -0.1530 -0.0609 -0.8482
  364SOL     MW 1456   1.229   3.132   0.861 -0.1110  0.0686 -0.1421
  365SOL     OW 1457   2.005   4.826   2.028 -0.8190  0.5101  0.0348
  365SOL    HW1 1458   1.946   4.893   2.061 -1.5659 -0.5700  0.9748
  365SOL    HW2 1459   2.047   4.866   1.951 -2.0872  1.6200 -0.1084
  365SOL     MW 1460   2.003   4.840   2.022 -1.0770  0.5139  0.1368
  366SOL     OW 1461   4.176   2.956   2.347  0.0172  0.1485  0.0399
  366SOL    HW1 1462   4.193   3.049   2.332  0.4252  0.1874  0.7160
  366SOL    HW2 1463   4.083   2.952   2.370 -0.2701  0.2506 -1.0486
  366SOL     MW 1464   4.166   2.967   2.348  0.0326  0.1666 -0.0129
  367SOL     OW 1465   5.320   1.109   2.139 -0.1635 -0.1312  0.2133
  367SOL    HW1 1466   5.363   1.161   2.207  0.7635 -1.1899  0.4509
  367SOL    HW2 1467   5.345   1.151   2.057  0.0699  0.1673  0.4363
  367SOL     MW 1468   5.328   1.121   2.137 -0.0149 -0.2285  0.2723
  368SOL     OW 1469   1.582   5.198   4.651  0.6072  0.0134  0.3257
  368SOL    HW1 1470   1.534   5.132   4.700 -0.6670  0.3880 -0.3924
  368SOL    HW2 1471   1.615   5.258   4.718  2.2462 -1.5836  1.0425
  368SOL     MW 1472   1.580   5.197   4.666  0.6539 -0.1431  0.3255
  369SOL     OW 1473   1.316   0.837   4.194  0.0968 -0.0584  0.0286
  369SOL    HW1 1474   1.274   0.822   4.279 -1.3476 -1.0761 -0.8095
  369SOL    HW2 1475   1.281   0.768   4.138  2.1143 -0.2684 -1.0442
  369SOL     MW 1476   1.306   0.827   4.198  0.1702 -0.2156 -0.2160
  370SOL     OW 1477   0.204   3.404   1.337  0.5135 -0.6461 -0.1962
  370SOL    HW1 1478   0.258   3.325   1.331 -0.9949 -1.7398 -0.0411
  370SOL    HW2 1479   0.204   3.441   1.249  0.4345 -1.3824 -0.5076
  370SOL     MW 1480   0.211   3.399   1.325  0.3103 -0.8804 -0.2162
  371SOL     OW 1481   0.319   0.999   2.633  0.0941 -0.1793 -0.4363
  371SOL    HW1 1482   0.404   0.962   2.655  0.4378  1.1713  0.6258
  371SOL    HW2 1483   0.258   0.925   2.638  1.0553 -0.9809 -0.3479
  371SOL     MW 1484   0.322   0.984   2.637  0.2611 -0.1090 -0.2890
  372SOL     OW 1485   4.669   0.743   4.420 -0.0829 -0.0441  0.5260
  372SOL    HW1 1486   4.587   0.701   4.444 -0.3337  0.0795 -0.0809
  372SOL    HW2 1487   4.661   0.833   4.451 -0.3738  0.0959  0.0538
  372SOL     MW 1488   4.658   0.749   4.427 -0.1523 -0.0103  0.3878
  373SOL     OW 1489   4.143   2.410   5.027  0.2974  0.6121  0.4729
  373SOL    HW1 1490   4.217   2.349   5.035  0.1345  0.4301  0.5840
  373SOL    HW2 1491   4.093   2.399   5.108 -0.5658 -0.2072 -0.1447
  373SOL     MW 1492   4.146   2.401   5.038  0.1660  0.4839  0.4080
  374SOL     OW 1493   1.811   5.141   3.602 -0.0848 -0.2425 -1.0009
  374SOL    HW1 1494   1.784   5.055   3.572 -1.1283 -0.0990 -0.5065
  374SOL    HW2 1495   1.906   5.142   3.590 -0.1088 -1.3189 -1.3500
  374SOL     MW 1496   1.820   5.130   3.597 -0.2214 -0.3619 -0.9823
  375SOL     OW 1497   0.992   5.380   1.309 -0.2803 -0.0593 -0.5030
  375SOL    HW1 1498   1.016   5.288   1.304 -1.9472 -0.5020 -0.8496
  375SOL    HW2 1499   1.067   5.426   1.272  0.4153 -1.2988 -0.6891
  375SOL     MW 1500   1.005   5.374   1.304 -0.4046 -0.2746 -0.5712
  376SOL     OW 1501   4.569   0.278   3.050 -0.0620  0.0376 -0.1061
  376SOL    HW1 1502   4.495   0.222   3.074 -0.3443  0.7748  0.7921
  376SOL    HW2 1503   4.646   0.233   3.085 -0.3535  0.5290  1.2013
  376SOL     MW 1504   4.569   0.265   3.057 -0.1355  0.1949  0.1762
  377SOL     OW 1505   3.582   1.671   4.819 -0.1921 -0.0766  0.1348
  377SOL    HW1 1506   3.529   1.751   4.812  1.1544  0.7271 -2.2867
  377SOL    HW2 1507   3.654   1.694   4.877  0.3145  0.5669 -0.7374
  377SOL     MW 1508   3.584   1.684   4.825  0.0451  0.1087 -0.2868
  378SOL     OW 1509   4.113   4.419   1.959 -0.6791  0.1487  0.0114
  378SOL    HW1 1510   4.149   4.408   1.871 -0.8016  0.5227 -0.0886
  378SOL    HW2 1511   4.018   4.418   1.946 -0.6975  0.6104  0.0821
  378SOL     MW 1512   4.105   4.418   1.946 -0.6971  0.2557  0.0076
  379SOL     OW 1513   5.382   3.197   0.936  0.6821 -0.4283 -0.6507
  379SOL    HW1 1514   5.332   3.178   1.015 -0.6003  3.7677 -0.2387
  379SOL    HW2 1515   5.365   3.123   0.878 -2.0533 -1.4698  1.3104
  379SOL     MW 1516   5.374   3.185   0.939  0.1678 -0.0245 -0.3469
  380SOL     OW 1517   5.344   3.920   0.414  0.5838 -1.0131 -0.5373
  380SOL    HW1 1518   5.400   3.964   0.350 -0.1187 -1.5923 -1.5596
  380SOL    HW2 1519   5.384   3.942   0.499  1.3730 -0.0295 -1.1405
  380SOL     MW 1520   5.356   3.928   0.417  0.5949 -0.9613 -0.7454
  381SOL     OW 1521   2.507   4.065   5.470 -0.2622 -0.3275  1.0963
  381SOL    HW1 1522   2.552   4.056   5.386 -2.2133 -1.1301  0.0559
  381SOL    HW2 1523   2.543   4.144   5.509 -0.1011  0.7171 -1.0386
  381SOL     MW 1524   2.517   4.074   5.464 -0.4913 -0.2965  0.6898
  382SOL     OW 1525   0.597   1.055   4.200 -0.2111 -0.0765 -0.4959
  382SOL    HW1 1526   0.622   1.004   4.277 -2.1391 -1.4080 -0.6911
  382SOL    HW2 1527   0.599   0.992   4.128  0.0260  0.7775 -1.2506
  382SOL     MW 1528   0.600   1.040   4.201 -0.4276 -0.1376 -0.6175
  383SOL     OW 1529   1.065   1.276   3.291 -0.0637  0.2375 -0.1376
  383SOL    HW1 1530   1.061   1.185   3.318  0.5794 -0.2047 -1.4644
  383SOL    HW2 1531   0.986   1.316   3.329 -0.5649 -0.9503  0.0994
  383SOL     MW 1532   1.054   1.270   3.299 -0.0455  0.0289 -0.2771
  384SOL     OW 1533   2.412   0.486   1.536  0.4690 -0.4199  0.2131
  384SOL    HW1 1534   2.448   0.423   1.474 -1.4627 -1.0152 -0.3968
  384SOL    HW2 1535   2.399   0.436   1.617  0.8197 -0.2704  0.3603
  384SOL     MW 1536   2.415   0.471   1.539  0.2666 -0.4770  0.1539
  385SOL     OW 1537   4.577   1.198   1.322  0.4325 -0.0695  0.1223
  385SOL    HW1 1538   4.565   1.290   1.343  0.0525 -0.2727  0.8365
  385SOL    HW2 1539   4.665   1.177   1.354  0.1735 -0.1743  0.7620
  385SOL     MW 1540   4.587   1.207   1.329  0.3507 -0.1089  0.2956
  386SOL     OW 1541   5.217   3.129   0.316  0.2521 -0.1921  0.6873
  386SOL    HW1 1542   5.159   3.064   0.356  0.7551 -0.1003  1.5940
  386SOL    HW2 1543   5.167   3.211   0.319 -0.1188 -0.3935  0.1597
  386SOL     MW 1544   5.203   3.131   0.321  0.2690 -0.2061  0.7358
  387SOL     OW 1545   3.941   0.791   1.613 -0.5756  0.0909 -0.0701
  387SOL    HW1 1546   3.856   0.801   1.656 -1.5154  2.8161 -2.2798
  387SOL    HW2 1547   3.926   0.817   1.523  2.7053  1.2151 -0.4505
  387SOL     MW 1548   3.928   0.796   1.607 -0.2759  0.5837 -0.4017
  388SOL     OW 1549   3.752   0.812   1.795  0.2374  0.5810  0.3214
  388SOL    HW1 1550   3.764   0.797   1.889  0.6555 -0.5672  0.0969
  388SOL    HW2 1551   3.659   0.833   1.785  0.0208 -0.0847  0.8980
  388SOL     MW 1552   3.742   0.813   1.806  0.2632  0.3488  0.3665
  389SOL     OW 1553   4.756   1.247   1.122  0.0847  0.1254  0.4326
  389SOL    HW1 1554   4.682   1.239   1.181 -0.4468  0.3429 -0.1863
  389SOL    HW2 1555   4.788   1.157   1.110  0.4950  0.1277  1.3981
  389SOL     MW 1556   4.751   1.234   1.128  0.0692  0.1535  0.4770
  390SOL     OW 1557   3.588   2.648   4.588  0.1784  0.2379 -0.2768
  390SOL    HW1 1558   3.596   2.732   4.542 -0.6545  0.3454 -0.2426
  390SOL    HW2 1559   3.676   2.632   4.623  0.3884  1.0249 -0.4064
  390SOL     MW 1560   3.601   2.657   4.587  0.0987  0.3524 -0.2890
  391SOL     OW 1561   1.297   0.485   0.308  0.0058  0.1590  0.0477
  391SOL    HW1 1562   1.227   0.432   0.347  0.1285 -1.0851 -1.3347
  391SOL    HW2 1563   1.330   0.538   0.380  0.5584 -2.3918  1.8218
  391SOL     MW 1564   1.293   0.485   0.322  0.0922 -0.3268  0.0979
  392SOL     OW 1565   3.990   3.021   3.792  0.1759 -0.5271  0.3746
  392SOL    HW1 1566   4.053   2.962   3.750  0.3405 -0.4297  0.4889
  392SOL    HW2 1567   3.906   2.997   3.753  0.3490 -0.3456 -0.1080
  392SOL     MW 1568   3.987   3.010   3.782  0.2192 -0.4914  0.3274
  393SOL     OW 1569   2.359   4.846   5.273 -0.3069 -0.2762  0.1812
  393SOL    HW1 1570   2.342   4.940   5.267 -1.9624 -0.6175 -1.0037
  393SOL    HW2 1571   2.396   4.822   5.188  0.0220 -0.7299  0.4448
  393SOL     MW 1572   2.362   4.855   5.262 -0.4767 -0.3780  0.0632
  394SOL     OW 1573   2.897   0.281   0.836 -0.1545  0.3887  0.3719
  394SOL    HW1 1574   2.846   0.202   0.852  1.1296 -0.5411 -0.0314
  394SOL    HW2 1575   2.848   0.328   0.768 -0.7641 -0.1930  0.4020
  394SOL     MW 1576   2.884   0.277   0.829 -0.0682  0.1952  0.3241
  395SOL     OW 1577   4.016   1.037   2.672  0.5823 -0.5649  0.2127
  395SOL    HW1 1578   4.014   1.133   2.672  0.7707 -0.5613  0.7935
  395SOL    HW2 1579   4.107   1.015   2.688  0.0882 -0.8367  3.1640
  395SOL     MW 1580   4.027   1.047   2.674  0.5432 -0.5993  0.6649
  396SOL     OW 1581   1.668   1.008   1.893 -0.3553 -0.0686 -0.2876
  396SOL    HW1 1582   1.757   1.028   1.922 -0.0386  0.6161 -1.6292
  396SOL    HW2 1583   1.680   0.951   1.817 -0.9242  1.7779 -1.8584
  396SOL     MW 1584   1.681   1.003   1.887 -0.3876  0.2554 -0.6604
  397SOL     OW 1585   4.713   5.081   0.255  0.0312 -0.0532  0.0570
  397SOL    HW1 1586   4.802   5.055   0.277 -0.5713 -2.3921  0.0322
  397SOL    HW2 1587   4.659   5.045   0.325 -0.9562  0.7728 -0.2586
  397SOL     MW 1588   4.717   5.073   0.267 -0.1723 -0.2469  0.0134
  398SOL     OW 1589   1.731   0.330   3.325  0.4087  0.2416  0.3871
  398SOL    HW1 1590   1.638   0.344   3.343  0.2794  0.3869 -0.3382
  398SOL    HW2 1591   1.766   0.417   3.307  1.0946  0.4210  2.3773
  398SOL     MW 1592   1.723   0.343   3.325  0.4800  0.2831  0.5490
  399SOL     OW 1593   4.970   3.020   4.236  0.2492 -0.4161 -0.0436
  399SOL    HW1 1594   5.056   2.990   4.207  0.8477 -0.3333  1.4991
  399SOL    HW2 1595   4.973   3.009   4.331 -0.4974  1.9684  0.3095
  399SOL     MW 1596   4.981   3.015   4.245  0.2302 -0.1003  0.1991
  400SOL     OW 1597   0.889   0.734   1.529  0.0711  0.6241 -0.2851
  400SOL    HW1 1598   0.961   0.756   1.589 -0.6384  2.6165 -0.0798
  400SOL    HW2 1599   0.927   0.745   1.442  0.5028 -0.1536 -0.2079
  400SOL     MW 1600   0.903   0.738   1.526  0.0355  0.7796 -0.2489
  401SOL     OW 1601   1.586   4.429   5.186 -0.6151  0.1164 -0.3435
  401SOL    HW1 1602   1.517   4.363   5.186 -0.9151  0.3938 -1.6496
  401SOL    HW2 1603   1.582   4.468   5.273 -1.2207 -0.7689  0.0439
  401SOL     MW 1604   1.577   4.426   5.197 -0.7310  0.0386 -0.4611
  402SOL     OW 1605   0.052   0.428   4.245 -0.3104 -0.6146  0.1769
  402SOL    HW1 1606   0.004   0.352   4.278 -1.2520  0.9421  2.6917
  402SOL    HW2 1607   0.039   0.495   4.312  2.1821  1.1362 -0.9577
  402SOL     MW 1608   0.044   0.427   4.257 -0.1119 -0.1912  0.3535
  403SOL     OW 1609   1.635   4.544   0.371  0.1611  0.7609 -0.6406
  403SOL    HW1 1610   1.682   4.509   0.447 -1.0324  0.4401 -0.0259
  403SOL    HW2 1611   1.555   4.583   0.408  0.1306  1.6727 -1.6070
  403SOL     MW 1612   1.631   4.545   0.386  0.0044  0.8365 -0.6856
  404SOL     OW 1613   1.842   4.454   2.748 -0.0657  0.4336 -0.4597
  404SOL    HW1 1614   1.804   4.519   2.689  1.2347  0.7710 -0.9640
  404SOL    HW2 1615   1.933   4.480   2.757 -0.2038  0.3843  1.7159
  404SOL     MW 1616   1.849   4.466   2.742  0.0831  0.4705 -0.2457
  405SOL     OW 1617   3.729   3.208   2.882  0.4939 -0.4371  0.7330
  405SOL    HW1 1618   3.659   3.192   2.945 -0.7182 -0.3327 -0.5365
  405SOL    HW2 1619   3.795   3.256   2.931 -1.5108  1.9008  1.3638
  405SOL     MW 1620   3.728   3.212   2.896  0.0821 -0.1244  0.6512
  406SOL     OW 1621   4.056   4.718   3.317  0.1203  0.3933  0.0348
  406SOL    HW1 1622   4.117   4.789   3.300  0.1201  0.2810 -0.4662
  406SOL    HW2 1623   3.992   4.723   3.246 -0.0611  0.0927  0.1718
  406SOL     MW 1624   4.056   4.728   3.306  0.0971  0.3405 -0.0118
  407SOL     OW 1625   5.344   3.277   4.417  0.0277 -0.4244 -0.1889
  407SOL    HW1 1626   5.368   3.249   4.329 -0.7115 -1.1338 -0.1749
  407SOL    HW2 1627   5.294   3.357   4.404  0.8919  0.1057 -0.3291
  407SOL     MW 1628   5.341   3.283   4.404  0.0437 -0.4474 -0.2050
  408SOL     OW 1629   1.675   5.289   3.378 -0.0814 -0.9368  0.1389
  408SOL    HW1 1630   1.721   5.296   3.294  0.1083 -0.9834  0.2400
  408SOL    HW2 1631   1.725   5.225   3.428  0.2631 -0.3167  0.5969
  408SOL     MW 1632   1.687   5.282   3.373 -0.0130 -0.8633  0.2105
  409SOL     OW 1633   4.391   2.709   0.500 -0.5093  0.4087  0.1399
  409SOL    HW1 1634   4.469   2.763   0.488 -0.3330 -0.1349 -1.4122
  409SOL    HW2 1635   4.399   2.641   0.433 -1.3184 -0.8442  1.2743
  409SOL     MW 1636   4.402   2.707   0.490 -0.5903  0.1787  0.0865
  410SOL     OW 1637   3.279   0.978   1.428 -0.5007 -0.0250  0.5272
  410SOL    HW1 1638   3.206   1.002   1.372  0.0194  1.5144  0.4625
  410SOL    HW2 1639   3.350   0.955   1.368 -1.0731 -2.1850  0.5819
  410SOL     MW 1640   3.279   0.978   1.413 -0.5074 -0.1045  0.5259
  411SOL     OW 1641   3.873   3.683   4.884 -0.3065  0.5101  0.3027
  411SOL    HW1 1642   3.805   3.652   4.943 -0.5778 -1.1082 -0.8056
  411SOL    HW2 1643   3.855   3.776   4.873 -1.7805  0.2997  0.7584
  411SOL     MW 1644   3.862   3.691   4.890 -0.5299  0.2760  0.2191
  412SOL     OW 1645   2.975   3.557   4.845  0.1608 -0.3953  0.1069
  412SOL    HW1 1646   3.028   3.634   4.868 -0.0998 -0.5789  1.3670
  412SOL    HW2 1647   3.013   3.486   4.897 -0.8671 -0.6861  0.4716
  412SOL     MW 1648   2.987   3.557   4.855 -0.0042 -0.4560  0.3149
  413SOL     OW 1649   1.908   1.342   4.722  0.7357 -0.2876 -0.3212
  413SOL    HW1 1650   1.856   1.288   4.663  0.7083  0.2297 -0.7808
  413SOL    HW2 1651   1.882   1.432   4.701 -0.5528 -0.1453  1.6637
  413SOL     MW 1652   1.898   1.347   4.712  0.5672 -0.2032 -0.1259
  414SOL     OW 1653   5.179   5.058   4.681  0.0279 -1.0439  0.3674
  414SOL    HW1 1654   5.086   5.036   4.672  0.0272 -1.1691  0.6655
  414SOL    HW2 1655   5.187   5.096   4.769 -0.2483  1.6562 -0.7022
  414SOL     MW 1656   5.168   5.060   4.691 -0.0076 -0.7143  0.2686
  415SOL     OW 1657   4.430   3.173   2.722  0.4241  0.2403  0.2378
  415SOL    HW1 1658   4.417   3.080   2.740  0.8600  0.6821  3.3822
  415SOL    HW2 1659   4.348   3.215   2.750 -0.5212  0.7273 -2.8819
  415SOL     MW 1660   4.418   3.167   2.728  0.3589  0.3592  0.2410
  416SOL     OW 1661   1.322   1.298   0.855 -0.0534  0.3206 -0.2614
  416SOL    HW1 1662   1.278   1.366   0.904 -0.4150 -2.3203  3.5497
  416SOL    HW2 1663   1.414   1.326   0.852 -0.3049  1.2904  0.6110
  416SOL     MW 1664   1.328   1.310   0.861 -0.1319  0.1067  0.3382
  417SOL     OW 1665   1.023   4.711   2.296  0.4470 -0.4184 -0.1645
  417SOL    HW1 1666   1.116   4.728   2.279  0.1156  0.9042 -0.8241
  417SOL    HW2 1667   0.977   4.752   2.222 -0.5908 -2.8365 -0.9745
  417SOL     MW 1668   1.029   4.719   2.284  0.2718 -0.5587 -0.3526
  418SOL     OW 1669   1.919   4.857   2.675 -0.0815  0.3017  0.2294
  418SOL    HW1 1670   2.007   4.856   2.712 -1.1932 -0.6795  3.1063
  418SOL    HW2 1671   1.865   4.900   2.742 -2.1430 -0.9038 -0.5554
  418SOL     MW 1672   1.923   4.863   2.688 -0.4877  0.0218  0.4972
  419SOL     OW 1673   3.176   0.128   2.398 -0.5795  0.8233 -0.1882
  419SOL    HW1 1674   3.155   0.178   2.318 -0.6475 -0.4043 -0.9606
  419SOL    HW2 1675   3.233   0.186   2.448 -2.6649  2.7277  0.1609
  419SOL     MW 1676   3.180   0.142   2.394 -0.8552  0.9099 -0.2424
  420SOL     OW 1677   4.012   5.114   2.412 -0.2317 -0.3274 -0.6786
  420SOL    HW1 1678   4.004   5.117   2.507  1.8861 -1.1651 -0.4012
  420SOL    HW2 1679   3.979   5.198   2.381  2.7915  1.7503  1.2033
  420SOL     MW 1680   4.007   5.125   2.420  0.4264 -0.1687 -0.4022
  421SOL     OW 1681   5.274   1.941   0.399 -0.8973  0.7002 -0.0207
  421SOL    HW1 1682   5.215   1.870   0.375  0.6970 -0.1461 -1.7223
  421SOL    HW2 1683   5.353   1.897   0.432 -0.2244  1.7051 -0.2278
  421SOL     MW 1684   5.277   1.926   0.401 -0.6071  0.7205 -0.2650
  422SOL     OW 1685   3.428   3.142   2.875 -0.3817 -0.1584 -0.1822
  422SOL    HW1 1686   3.438   3.237   2.870  1.3212 -0.2971 -0.0168
  422SOL    HW2 1687   3.462   3.109   2.792  0.2411 -0.6858  0.2688
  422SOL     MW 1688   3.434   3.150   2.864 -0.0840 -0.2436 -0.1033
  423SOL     OW 1689   3.522   3.840   0.985  0.3578  0.9467  0.3144
  423SOL    HW1 1690   3.594   3.787   0.950  1.1535  1.7052  0.7731
  423SOL    HW2 1691   3.513   3.912   0.922 -0.5777  0.4089 -0.1922
  423SOL     MW 1692   3.531   3.842   0.972  0.3399  0.9750  0.3083
  424SOL     OW 1693   2.991   4.525   2.662  0.1386  0.1382 -0.2911
  424SOL    HW1 1694   2.898   4.533   2.681  0.4339  1.3078  0.8681
  424SOL    HW2 1695   3.006   4.585   2.589 -0.0170 -0.0799 -0.5034
  424SOL     MW 1696   2.981   4.534   2.655  0.1565  0.2600 -0.1699
  425SOL     OW 1697   5.384   3.180   2.895 -0.0013 -0.2316  0.0984
  425SOL    HW1 1698   5.448   3.126   2.847 -0.6176  0.3539 -1.4564
  425SOL    HW2 1699   5.312   3.120   2.914 -0.5446 -0.0997 -1.3500
  425SOL     MW 1700   5.383   3.165   2.891 -0.1498 -0.1397 -0.2861
  426SOL     OW 1701   1.961   1.436   0.314  0.0177  0.4295 -0.0497
  426SOL    HW1 1702   1.921   1.437   0.401  0.5269 -2.6527  0.3189
  426SOL    HW2 1703   1.892   1.404   0.256  0.8887 -1.8536  0.0614
  426SOL     MW 1704   1.947   1.432   0.318  0.1944 -0.2573  0.0117
  427SOL     OW 1705   2.934   3.524   4.504  0.4989  0.1296 -0.1649
  427SOL    HW1 1706   3.019   3.542   4.544 -0.2800 -0.0145  1.6457
  427SOL    HW2 1707   2.883   3.603   4.519 -0.2376 -0.4295  0.3163
  427SOL     MW 1708   2.938   3.536   4.511  0.3049  0.0396  0.1285
  428SOL     OW 1709   0.329   1.478   0.070 -0.4625 -0.1948  0.3032
  428SOL    HW1 1710   0.237   1.502   0.062 -0.3089  0.3107 -0.0385
  428SOL    HW2 1711   0.342   1.407   0.007 -0.4509  0.2474 -0.2029
  428SOL     MW 1712   0.319   1.472   0.061 -0.4414 -0.0735  0.1947
  429SOL     OW 1713   5.103   0.464   1.404 -0.4762 -0.0347  0.1499
  429SOL    HW1 1714   5.137   0.464   1.315 -0.4394 -1.8640  0.1276
  429SOL    HW2 1715   5.175   0.498   1.457  0.0114 -0.2745 -0.3472
  429SOL     MW 1716   5.116   0.469   1.399 -0.4090 -0.2995  0.0834
  430SOL     OW 1717   5.334   4.413   2.549  0.3334  0.3045 -0.1655
  430SOL    HW1 1718   5.290   4.382   2.628 -1.2845 -0.4200 -1.3077
  430SOL    HW2 1719   5.295   4.499   2.532  2.4379  1.6113  1.1292
  430SOL     MW 1720   5.324   4.420   2.557  0.3957  0.3790 -0.1460
  431SOL     OW 1721   5.164   3.928   3.075  0.1234  0.4983 -0.1249
  431SOL    HW1 1722   5.094   3.894   3.131  0.7746  1.7469  1.5208
  431SOL    HW2 1723   5.123   3.936   2.989 -0.5071 -2.8024 -0.2443
  431SOL     MW 1724   5.150   3.925   3.071  0.1260  0.2356  0.0705
  432SOL     OW 1725   4.992   3.344   1.896  0.2255 -0.0693  0.0139
  432SOL    HW1 1726   4.942   3.418   1.929 -0.0260 -0.0397 -0.4239
  432SOL    HW2 1727   4.943   3.267   1.925  1.2251 -0.1305  1.6787
  432SOL     MW 1728   4.979   3.344   1.904  0.3213 -0.0733  0.1710
  433SOL     OW 1729   1.188   0.484   2.377  0.6345  0.2017 -0.3515
  433SOL    HW1 1730   1.112   0.543   2.379  0.5721  0.1197 -0.2365
  433SOL    HW2 1731   1.233   0.501   2.460  0.1264 -0.5432  0.0894
  433SOL     MW 1732   1.184   0.494   2.388  0.5615  0.0959 -0.2803
  434SOL     OW 1733   4.659   0.552   3.733  0.2463 -0.1170  0.3113
  434SOL    HW1 1734   4.655   0.607   3.811  0.8763  0.6196 -0.1646
  434SOL    HW2 1735   4.742   0.505   3.741 -0.7097 -1.7821  1.1983
  434SOL     MW 1736   4.669   0.553   3.744  0.2046 -0.2358  0.3639
  435SOL     OW 1737   5.167   0.502   3.693 -0.7081  0.1611  0.4280
  435SOL    HW1 1738   5.176   0.595   3.715  1.2920  0.2358 -0.4613
  435SOL    HW2 1739   5.229   0.458   3.751  0.0200 -0.3306 -0.6945
  435SOL     MW 1740   5.176   0.509   3.703 -0.3588  0.1077  0.1705
  436SOL     OW 1741   0.838   3.515   0.233 -0.2399  0.2490  0.0458
  436SOL    HW1 1742   0.856   3.595   0.280 -1.4309  0.8160 -0.4066
  436SOL    HW2 1743   0.744   3.499   0.247 -0.3616 -0.2209 -1.1020
  436SOL     MW 1744   0.828   3.523   0.241 -0.4080  0.2614 -0.1591
  437SOL     OW 1745   2.781   1.157   0.604  0.6479 -0.0622  0.1645
  437SOL    HW1 1746   2.848   1.220   0.576  0.4716 -0.2295 -0.6784
  437SOL    HW2 1747   2.704   1.210   0.622  0.6146  0.0106 -0.1749
  437SOL     MW 1748   2.780   1.172   0.603  0.6211 -0.0743  0.0132
  438SOL     OW 1749   1.041   2.770   3.042 -0.3829 -0.2752 -0.3133
  438SOL    HW1 1750   1.007   2.797   3.127 -0.8265  2.4556 -1.2879
  438SOL    HW2 1751   0.964   2.761   2.987  0.0654  0.6289 -1.1181
  438SOL     MW 1752   1.027   2.772   3.046 -0.3823  0.1901 -0.5411
  439SOL     OW 1753   5.384   2.050   2.912  0.0910 -0.0395  0.1231
  439SOL    HW1 1754   5.392   1.974   2.970 -0.6926  0.5647  1.0494
  439SOL    HW2 1755   5.400   2.126   2.968  0.5862  0.5036 -0.7312
  439SOL     MW 1756   5.387   2.050   2.927  0.0541  0.1074  0.1323
  440SOL     OW 1757   2.104   2.050   5.431  0.1484 -0.3602 -0.1318
  440SOL    HW1 1758   2.150   1.997   5.365  1.2872  3.2671 -2.5650
  440SOL    HW2 1759   2.174   2.090   5.482 -0.4923  0.8821 -0.1909
  440SOL     MW 1760   2.119   2.048   5.429  0.2121  0.2632 -0.4508
  441SOL     OW 1761   4.696   2.184   5.053  0.6842 -0.4342  0.1468
  441SOL    HW1 1762   4.773   2.204   5.107  0.2198  1.2399  0.2452
  441SOL    HW2 1763   4.697   2.251   4.985 -0.5510 -0.5459  0.0059
  441SOL     MW 1764   4.706   2.195   5.051  0.4667 -0.2342  0.1414
  442SOL     OW 1765   0.438   4.864   1.320 -0.3289 -0.1976 -0.0332
  442SOL    HW1 1766   0.370   4.798   1.336  0.9029 -1.1269  1.7194
  442SOL    HW2 1767   0.460   4.896   1.408 -0.1437  1.8276 -0.7618
  442SOL     MW 1768   0.432   4.860   1.334 -0.1475 -0.0574  0.0979
  443SOL     OW 1769   0.370   0.501   2.560 -0.0030 -0.7120 -0.0886
  443SOL    HW1 1770   0.383   0.583   2.607  1.0960  0.3804 -2.1271
  443SOL    HW2 1771   0.284   0.510   2.519 -0.2397 -0.9423  0.3550
  443SOL     MW 1772   0.360   0.513   2.561  0.1074 -0.6017 -0.2928
  444SOL     OW 1773   5.027   2.101   3.538 -0.0601  0.2499  0.3066
  444SOL    HW1 1774   5.080   2.156   3.480 -1.6667  0.3439 -1.1589
  444SOL    HW2 1775   4.954   2.073   3.483  1.4903 -4.8678  0.3641
  444SOL     MW 1776   5.025   2.105   3.523 -0.0673 -0.3932  0.1264
  445SOL     OW 1777   4.822   2.379   1.701  0.2208  0.1431  0.0511
  445SOL    HW1 1778   4.877   2.441   1.654  1.5826 -0.4933  0.7393
  445SOL    HW2 1779   4.855   2.382   1.791  0.6700 -1.9501 -0.0081
  445SOL     MW 1780   4.833   2.387   1.707  0.4527 -0.2063  0.1316
  446SOL     OW 1781   4.846   4.069   3.695 -0.5523  0.2609  0.2674
  446SOL    HW1 1782   4.814   4.155   3.666  0.4159 -0.4767 -3.4612
  446SOL    HW2 1783   4.775   4.009   3.673 -0.7069 -0.0962  1.6815
  446SOL     MW 1784   4.833   4.073   3.688 -0.4482  0.1207 -0.0289
  447SOL     OW 1785   3.822   1.000   2.465 -0.1835 -0.2657  0.6775
  447SOL    HW1 1786   3.835   0.914   2.426  3.0134  0.3139  0.1569
  447SOL    HW2 1787   3.894   1.010   2.527 -1.3078  1.4846  1.7882
  447SOL     MW 1788   3.833   0.990   2.468  0.0818  0.0325  0.7530
  448SOL     OW 1789   1.644   2.888   2.357  0.3958  0.1136 -0.1633
  448SOL    HW1 1790   1.601   2.824   2.300 -0.4662  2.3064 -2.1398
  448SOL    HW2 1791   1.727   2.907   2.313  0.1272  1.1743 -0.2380
  448SOL     MW 1792   1.649   2.882   2.344  0.2511  0.5301 -0.4258
  449SOL     OW 1793   0.949   0.916   4.884 -0.1619  0.0240  0.1275
  449SOL    HW1 1794   0.983   0.834   4.920 -0.7644  0.6890  2.3700
  449SOL    HW2 1795   0.860   0.896   4.856 -1.0376  0.2944  2.5095
  449SOL     MW 1796   0.942   0.903   4.885 -0.3511  0.1437  0.7195
  450SOL     OW 1797   1.822   1.978   0.797 -0.2072 -0.0627  0.3247
  450SOL    HW1 1798   1.846   2.057   0.748 -0.4615  1.7528  2.8991
  450SOL    HW2 1799   1.904   1.931   0.809  0.7798  1.9547  2.1516
  450SOL     MW 1800   1.835   1.982   0.792 -0.1134  0.4279  0.8881
  451SOL     OW 1801   4.319   4.506   0.782 -0.2273 -0.3763  0.2743
  451SOL    HW1 1802   4.366   4.576   0.828 -1.0142  0.1249  0.3324
  451SOL    HW2 1803   4.337   4.427   0.833  1.6584 -0.4894 -0.4461
  451SOL     MW 1804   4.328   4.505   0.794 -0.0867 -0.3266  0.1895
  452SOL     OW 1805   2.522   4.697   0.678 -0.6526 -0.0036 -0.5120
  452SOL    HW1 1806   2.530   4.762   0.748 -0.8072  0.2794 -0.7543
  452SOL    HW2 1807   2.609   4.695   0.638 -0.8138  0.5141 -0.9026
  452SOL     MW 1808   2.535   4.705   0.682 -0.6930  0.0989 -0.5930
  453SOL     OW 1809   3.528   4.794   5.291  0.3251 -0.0755 -0.2981
  453SOL    HW1 1810   3.488   4.856   5.352 -0.1524 -0.6060 -0.0728
  453SOL    HW2 1811   3.587   4.848   5.238 -1.3993  0.9064 -1.2997
  453SOL     MW 1812   3.531   4.809   5.292  0.0432 -0.0177 -0.3975
  454SOL     OW 1813   3.396   1.743   3.938  0.1872  0.1538 -0.0507
  454SOL    HW1 1814   3.399   1.709   3.848 -0.4280 -1.4160  0.4869
  454SOL    HW2 1815   3.473   1.800   3.945 -0.6719  1.6991 -2.0748
  454SOL     MW 1816   3.407   1.746   3.927 -0.0015  0.1506 -0.2410
  455SOL     OW 1817   3.213   3.271   5.393 -0.0876  0.1925 -0.5007
  455SOL    HW1 1818   3.260   3.354   5.396 -1.2082  0.9353 -1.9102
  455SOL    HW2 1819   3.221   3.241   5.303  0.8057 -1.5803  0.1202
  455SOL     MW 1820   3.220   3.278   5.382 -0.1167  0.0607 -0.6016
  456SOL     OW 1821   5.171   5.018   0.203 -0.0019 -0.2602  0.1543
  456SOL    HW1 1822   5.109   5.028   0.275  1.0456 -0.5812  1.1250
  456SOL    HW2 1823   5.156   5.095   0.147 -2.3261 -1.1054 -0.4903
  456SOL     MW 1824   5.161   5.029   0.205 -0.1654 -0.4094  0.1961
  457SOL     OW 1825   4.580   4.173   2.208  0.3128 -0.0085 -0.2379
  457SOL    HW1 1826   4.584   4.244   2.144  0.7808 -0.4866 -0.7373
  457SOL    HW2 1827   4.613   4.212   2.289 -0.2424  0.5834 -0.2808
  457SOL     MW 1828   4.584   4.187   2.210  0.3016  0.0061 -0.3073
  458SOL     OW 1829   5.309   0.533   2.551  0.3189 -0.4600  0.4435
  458SOL    HW1 1830   5.270   0.460   2.503 -2.1309  0.2965  1.1018
  458SOL    HW2 1831   5.255   0.609   2.528  2.7136  1.1871 -0.1401
  458SOL     MW 1832   5.297   0.534   2.542  0.3118 -0.1524  0.4531
  459SOL     OW 1833   4.240   2.126   2.018 -0.0778 -0.8674 -0.3708
  459SOL    HW1 1834   4.151   2.160   2.014  0.3078  0.0770 -1.3644
  459SOL    HW2 1835   4.253   2.106   2.111 -0.6608  0.8387  0.1260
  459SOL     MW 1836   4.230   2.128   2.030 -0.1031 -0.5281 -0.4344
  460SOL     OW 1837   1.686   1.361   1.571 -0.0679  0.3478 -0.2315
  460SOL    HW1 1838   1.634   1.441   1.578  1.1782  1.1876 -0.2408
  460SOL    HW2 1839   1.777   1.391   1.572  0.4206 -0.9585 -1.6073
  460SOL     MW 1840   1.691   1.375   1.572  0.1542  0.2881 -0.4088
  461SOL     OW 1841   2.160   2.357   4.838 -0.2130  0.5387 -0.1110
  461SOL    HW1 1842   2.121   2.441   4.815  2.1753  2.3125  1.7547
  461SOL    HW2 1843   2.253   2.368   4.820 -0.0846 -2.6389 -2.0942
  461SOL     MW 1844   2.167   2.369   4.833  0.1092  0.3590 -0.1260
  462SOL     OW 1845   0.652   1.688   2.679  0.3064 -0.2950  0.4751
  462SOL    HW1 1846   0.631   1.603   2.639 -1.2649  0.7905 -1.1775
  462SOL    HW2 1847   0.691   1.666   2.763  1.3173 -2.6766 -0.5260
  462SOL     MW 1848   0.654   1.674   2.684  0.2347 -0.4609  0.1354
  463SOL     OW 1849   5.442   1.193   0.440  0.1686 -0.0256 -0.9111
  463SOL    HW1 1850   5.409   1.165   0.526 -2.5611 -0.4731 -2.0070
  463SOL    HW2 1851   5.508   1.259   0.460 -1.6190  1.1744  1.5283
  463SOL     MW 1852   5.446   1.198   0.454 -0.4097  0.0708 -0.7391
  464SOL     OW 1853   0.047   3.600   3.348  0.3501 -0.3925 -0.6520
  464SOL    HW1 1854   0.020   3.563   3.432 -1.9296 -0.1442 -1.2291
  464SOL    HW2 1855   0.036   3.695   3.358  0.4925 -0.3260 -1.0926
  464SOL     MW 1856   0.042   3.608   3.360  0.0765 -0.3522 -0.7823
  465SOL     OW 1857   3.843   4.625   4.763 -0.2995 -0.2285 -0.1781
  465SOL    HW1 1858   3.777   4.558   4.744 -1.2021  0.8019 -0.7497
  465SOL    HW2 1859   3.924   4.575   4.775 -1.3903 -1.6703  1.9592
  465SOL     MW 1860   3.845   4.610   4.762 -0.5547 -0.2812  0.0224
  466SOL     OW 1861   1.221   4.270   0.439  0.1880 -0.1041 -0.0230
  466SOL    HW1 1862   1.218   4.215   0.517 -0.4625 -2.0648 -1.3509
  466SOL    HW2 1863   1.310   4.305   0.438 -0.0946  0.8528  2.1254
  466SOL     MW 1864   1.232   4.268   0.449  0.0686 -0.2326  0.0820
  467SOL     OW 1865   5.331   5.212   3.966 -0.3356  0.4681  0.1415
  467SOL    HW1 1866   5.336   5.123   3.999 -2.4330 -0.8349 -2.5912
  467SOL    HW2 1867   5.253   5.212   3.910  0.7187  3.4387 -1.5570
  467SOL     MW 1868   5.322   5.201   3.963 -0.4691  0.6816 -0.4257
  468SOL     OW 1869   4.722   5.466   4.796 -0.1952 -0.3600 -0.4004
  468SOL    HW1 1870   4.661   5.431   4.862  1.0426  0.5541  1.3084
  468SOL    HW2 1871   4.666   5.492   4.723 -1.5630 -1.9458  0.0240
  468SOL     MW 1872   4.707   5.465   4.795 -0.2118 -0.4460 -0.1273
  469SOL     OW 1873   4.460   4.725   4.577  0.5131 -0.0425  0.0803
  469SOL    HW1 1874   4.548   4.717   4.539  1.1232 -0.8413  1.5498
  469SOL    HW2 1875   4.462   4.809   4.623 -0.3458  1.0993 -1.8330
  469SOL     MW 1876   4.472   4.735   4.578  0.4813  0.0014  0.0235
  470SOL     OW 1877   1.240   0.579   3.302 -0.3428 -0.0463  0.2793
  470SOL    HW1 1878   1.247   0.566   3.208 -2.5983 -0.2736  0.0963
  470SOL    HW2 1879   1.315   0.533   3.339 -0.6870 -1.9419 -1.2596
  470SOL     MW 1880   1.251   0.572   3.295 -0.6756 -0.3180  0.0588
  471SOL     OW 1881   2.756   1.418   2.800  0.0876  0.8905  0.0301
  471SOL    HW1 1882   2.839   1.397   2.843  0.4933  0.4777 -0.9416
  471SOL    HW2 1883   2.727   1.497   2.845  0.8860  0.9160  0.5426
  471SOL     MW 1884   2.763   1.425   2.812  0.2417  0.8409 -0.0287
  472SOL     OW 1885   1.075   4.565   4.504 -1.0867  0.1512 -0.0128
  472SOL    HW1 1886   1.058   4.602   4.417 -0.3518  3.1987  1.0151
  472SOL    HW2 1887   1.164   4.529   4.498 -0.5550  1.4427 -0.2536
  472SOL     MW 1888   1.085   4.565   4.492 -0.9245  0.7066  0.0880
  473SOL     OW 1889   3.657   3.623   5.039 -0.5292  0.2874 -0.1129
  473SOL    HW1 1890   3.671   3.696   5.099 -0.9131  0.3993 -0.1547
  473SOL    HW2 1891   3.642   3.548   5.097 -2.7510  0.7304  0.0043
  473SOL     MW 1892   3.657   3.623   5.054 -0.8628  0.3585 -0.1032
  474SOL     OW 1893   1.150   3.810   4.998  0.7077 -0.4002  0.3208
  474SOL    HW1 1894   1.066   3.766   4.986  0.3325  0.1399  0.8695
  474SOL    HW2 1895   1.200   3.751   5.055  0.0458  0.0548  1.4105
  474SOL     MW 1896   1.145   3.797   5.004  0.5749 -0.2729  0.5305
  475SOL     OW 1897   3.280   0.094   5.170  0.1087  0.5121 -0.8435
  475SOL    HW1 1898   3.306   0.011   5.130 -0.7176  0.3081 -0.9880
  475SOL    HW2 1899   3.184   0.093   5.165 -0.0911  0.1725  1.7249
  475SOL     MW 1900   3.271   0.083   5.164 -0.0227  0.4425 -0.5332
  476SOL     OW 1901   0.065   0.967   0.301 -0.0412  0.0326  0.6539
  476SOL    HW1 1902   0.056   1.030   0.372 -1.3795 -1.1290  1.5607
  476SOL    HW2 1903   0.128   0.902   0.334 -1.3765 -1.0241  1.2133
  476SOL     MW 1904   0.072   0.966   0.314 -0.3834 -0.2514  0.8416
  477SOL     OW 1905   2.870   3.892   0.062  1.1732  0.3301 -0.4072
  477SOL    HW1 1906   2.887   3.798   0.066 -0.4015  0.0364  0.4433
  477SOL    HW2 1907   2.808   3.902  -0.010  0.0378  0.4527  0.5480
  477SOL     MW 1908   2.864   3.882   0.053  0.8263  0.3082 -0.1761
  478SOL     OW 1909   0.046   0.071   0.984 -0.5248 -0.3321  0.0671
  478SOL    HW1 1910   0.052   0.135   1.054  0.0061  0.8959 -1.0743
  478SOL    HW2 1911   0.039  -0.013   1.030  0.1373  0.3951  1.5738
  478SOL     MW 1912   0.046   0.068   0.999 -0.3721 -0.0818  0.1139
  479SOL     OW 1913   1.595   4.318   4.134 -0.2580 -0.0599  0.1150
  479SOL    HW1 1914   1.607   4.261   4.210  0.1964 -0.2834 -0.1264
  479SOL    HW2 1915   1.509   4.294   4.099 -0.2179 -0.3509  0.2201
  479SOL     MW 1916   1.585   4.308   4.139 -0.1947 -0.1257  0.0976
  480SOL     OW 1917   4.004   1.765   1.026  0.0547  0.0052 -0.3734
  480SOL    HW1 1918   3.935   1.765   0.959 -0.7233 -0.4173  0.3967
  480SOL    HW2 1919   4.086   1.767   0.976 -0.4754 -1.2574 -1.3718
  480SOL     MW 1920   4.005   1.765   1.011 -0.1127 -0.2105 -0.4026
  481SOL     OW 1921   3.898   3.080   4.686 -0.3314 -0.2909  0.0839
  481SOL    HW1 1922   3.959   3.117   4.749 -0.3644 -0.4951  0.2353
  481SOL    HW2 1923   3.884   3.150   4.622  1.0975 -0.6841 -0.6873
  481SOL     MW 1924   3.904   3.093   4.686 -0.1528 -0.3673  0.0045
  482SOL     OW 1925   4.564   3.482   0.039  0.3403  0.3701 -0.5648
  482SOL    HW1 1926   4.578   3.447   0.127 -1.3308  0.5701 -0.1702
  482SOL    HW2 1927   4.621   3.431  -0.018  3.2136  1.7649  0.8897
  482SOL     MW 1928   4.573   3.471   0.043  0.4942  0.5743 -0.3281
  483SOL     OW 1929   1.208   4.487   3.628  0.5323 -0.0782 -0.0183
  483SOL    HW1 1930   1.217   4.459   3.536 -1.0599 -0.0262 -0.2193
  483SOL    HW2 1931   1.126   4.447   3.657  1.6164 -1.1393  1.8018
  483SOL     MW 1932   1.199   4.478   3.620  0.4673 -0.2074  0.1890
  484SOL     OW 1933   3.213   2.829   5.454 -0.0815  0.4358 -0.5811
  484SOL    HW1 1934   3.179   2.752   5.499  0.3113 -1.9260 -3.9525
  484SOL    HW2 1935   3.141   2.892   5.457 -1.1692 -0.8032  0.5677
  484SOL     MW 1936   3.200   2.827   5.460 -0.1705 -0.0251 -0.8656
  485SOL     OW 1937   5.225   3.100   1.133  0.0187  0.1252  0.1936
  485SOL    HW1 1938   5.129   3.095   1.132 -0.0290  0.5252 -1.9202
  485SOL    HW2 1939   5.254   3.009   1.123 -0.1951  0.1739 -1.0052
  485SOL     MW 1940   5.216   3.088   1.132 -0.0148  0.1827 -0.2305
  486SOL     OW 1941   2.471   1.164   2.985  0.1758  0.1204 -0.0147
  486SOL    HW1 1942   2.405   1.233   2.977 -1.1125 -1.1477 -0.8110
  486SOL    HW2 1943   2.538   1.202   3.041  0.3960  2.6734 -1.8255
  486SOL     MW 1944   2.471   1.178   2.991  0.0391  0.2849 -0.3484
  487SOL     OW 1945   1.468   2.679   2.285  0.2875 -0.0070  0.2424
  487SOL    HW1 1946   1.514   2.596   2.286  0.2042 -0.0537  0.8904
  487SOL    HW2 1947   1.388   2.662   2.335  0.7313  0.7144  1.2280
  487SOL     MW 1948   1.463   2.666   2.291  0.3337  0.0793  0.4515
  488SOL     OW 1949   4.329   4.676   2.395  0.2972  0.0767  0.4072
  488SOL    HW1 1950   4.334   4.737   2.322  0.3855 -0.2277  0.1579
  488SOL    HW2 1951   4.252   4.704   2.444 -0.3672 -0.3581 -0.3752
  488SOL     MW 1952   4.320   4.688   2.392  0.2234 -0.0179  0.2752
  489SOL     OW 1953   2.637   3.689   4.581 -0.1116  0.0449 -0.1022
  489SOL    HW1 1954   2.693   3.759   4.614 -0.0890 -0.0491  0.0583
  489SOL    HW2 1955   2.629   3.628   4.654 -0.0305 -0.1835 -0.2845
  489SOL     MW 1956   2.643   3.690   4.594 -0.0983  0.0036 -0.1050
  490SOL     OW 1957   1.455   3.440   5.227  0.2729  0.0091  0.0282
  490SOL    HW1 1958   1.407   3.452   5.146  1.2208 -1.0288 -0.7240
  490SOL    HW2 1959   1.451   3.345   5.244  0.4497  0.1500  0.9576
  490SOL     MW 1960   1.449   3.429   5.219  0.4168 -0.1057  0.0509
  491SOL     OW 1961   1.215   1.151   2.409  0.2302  0.2085  0.0054
  491SOL    HW1 1962   1.245   1.214   2.344 -1.4060  1.6190  0.5531
  491SOL    HW2 1963   1.263   1.070   2.388  0.1439  0.7470 -2.6225
  491SOL     MW 1964   1.225   1.148   2.398  0.0097  0.4580 -0.2609
  492SOL     OW 1965   4.715   5.237   0.767 -0.2966 -0.7212 -0.6119
  492SOL    HW1 1966   4.662   5.225   0.846 -0.9280 -0.0211 -0.9067
  492SOL    HW2 1967   4.655   5.279   0.705  0.7131  0.4770 -0.8151
  492SOL     MW 1968   4.700   5.241   0.770 -0.2482 -0.4782 -0.6757
  493SOL     OW 1969   3.759   1.866   1.670  0.6469 -0.4235 -0.0156
  493SOL    HW1 1970   3.759   1.786   1.619  2.1113 -0.1356 -0.5121
  493SOL    HW2 1971   3.705   1.927   1.619  1.6606 -0.3040 -0.9824
  493SOL     MW 1972   3.752   1.864   1.657  0.9641 -0.3714 -0.2029
  494SOL     OW 1973   3.433   0.804   5.371  0.2309 -0.1672  0.3453
  494SOL    HW1 1974   3.419   0.711   5.353 -0.3891 -0.1086  0.4804
  494SOL    HW2 1975   3.375   0.822   5.445  1.4774 -0.0223  1.3165
  494SOL     MW 1976   3.423   0.794   5.379  0.3111 -0.1412  0.4869
  495SOL     OW 1977   4.788   0.127   0.924  0.6595  0.1836  0.1928
  495SOL    HW1 1978   4.850   0.131   0.997  0.6621  0.0062  0.2008
  495SOL    HW2 1979   4.830   0.071   0.859 -0.1391 -1.2061  0.8285
  495SOL     MW 1980   4.801   0.120   0.925  0.5576 -0.0170  0.2752
  496SOL     OW 1981   0.054   3.448   2.920 -0.4166  0.3974  0.2718
  496SOL    HW1 1982   0.037   3.360   2.888  1.5343  0.0546  0.0595
  496SOL    HW2 1983  -0.021   3.499   2.890 -0.0426 -0.4836 -2.5461
  496SOL     MW 1984   0.042   3.444   2.912 -0.1190  0.2408 -0.1161
  497SOL     OW 1985   5.084   0.484   0.977  0.1325 -0.1833 -0.6081
  497SOL    HW1 1986   5.102   0.393   0.955 -0.8685 -1.3182  2.6264
  497SOL    HW2 1987   4.989   0.488   0.990  0.2709  1.0276  0.2746
  497SOL     MW 1988   5.074   0.473   0.976  0.0221 -0.1736 -0.0810
  498SOL     OW 1989   4.475   1.569   3.310  0.4121  0.2779  0.1743
  498SOL    HW1 1990   4.474   1.520   3.393  0.9526  0.1300  0.0992
  498SOL    HW2 1991   4.567   1.570   3.285  0.7447  2.9451  1.1384
  498SOL     MW 1992   4.487   1.563   3.318  0.5239  0.6004  0.2881
  499SOL     OW 1993   2.722   1.889   4.090 -0.5197  0.5424  0.1425
  499SOL    HW1 1994   2.752   1.805   4.054 -0.5324 -0.2044  1.7756
  499SOL    HW2 1995   2.728   1.950   4.017  1.4044 -0.4340 -0.5789
  499SOL     MW 1996   2.727   1.886   4.076 -0.2750  0.3218  0.2592
  500SOL     OW 1997   4.314   4.907   3.020 -0.0124  0.5099  0.9213
  500SOL    HW1 1998   4.360   4.824   3.030  0.0797  0.6198  1.4650
  500SOL    HW2 1999   4.379   4.967   2.985 -0.4410  0.0185 -0.8092
  500SOL     MW 2000   4.328   4.904   3.017 -0.0555  0.4610  0.7694
  501SOL     OW 2001   1.928   1.453   2.688 -0.3091  0.1189 -0.1064
  501SOL    HW1 2002   1.907   1.377   2.634  0.6080 -0.6680  0.6023
  501SOL    HW2 2003   1.848   1.472   2.736 -0.6856 -0.1048 -0.6358
  501SOL     MW 2004   1.915   1.445   2.687 -0.2399 -0.0104 -0.0835
  502SOL     OW 2005   4.619   5.087   2.089  0.4062 -0.1953  0.1079
  502SOL    HW1 2006   4.540   5.104   2.038  0.5532  0.5841  0.1345
  502SOL    HW2 2007   4.691   5.110   2.030  0.5798  0.4540  0.5602
  502SOL     MW 2008   4.618   5.092   2.075  0.4473 -0.0124  0.1692
  503SOL     OW 2009   2.953   1.009   4.474  0.3555 -0.0347  0.3080
  503SOL    HW1 2010   3.023   1.067   4.444 -0.4529  1.0392  0.4411
  503SOL    HW2 2011   2.876   1.065   4.482 -0.5154 -1.1703  0.2545
  503SOL     MW 2012   2.952   1.023   4.471  0.1406 -0.0426  0.3182
  504SOL     OW 2013   1.367   0.299   0.655 -0.6098  0.0368  0.7144
  504SOL    HW1 2014   1.292   0.253   0.619 -1.1130  0.1061  1.6371
  504SOL    HW2 2015   1.347   0.392   0.643 -2.3430  0.2243  4.0058
  504SOL     MW 2016   1.355   0.305   0.649 -0.8961  0.0697  1.2539
  505SOL     OW 2017   1.507   3.672   4.519 -0.1305 -0.5412 -0.2670
  505SOL    HW1 2018   1.488   3.722   4.598 -0.5884  0.5210 -1.0220
  505SOL    HW2 2019   1.423   3.667   4.473  0.5284  0.6686 -1.6785
  505SOL     MW 2020   1.494   3.678   4.523 -0.1048 -0.2504 -0.5443
  506SOL     OW 2021   2.712   2.434   1.815 -0.7894  0.1697  0.5969
  506SOL    HW1 2022   2.643   2.379   1.851 -0.8483 -0.8681 -1.0026
  506SOL    HW2 2023   2.709   2.514   1.867 -0.9349 -1.1804  2.7832
  506SOL     MW 2024   2.703   2.437   1.826 -0.8156 -0.1360  0.6720
  507SOL     OW 2025   2.075   0.964   4.355 -0.2142 -0.3344 -0.9894
  507SOL    HW1 2026   2.110   0.882   4.319 -0.2924 -0.8482  0.0592
  507SOL    HW2 2027   2.067   1.022   4.280 -0.5164 -1.4175 -1.8152
  507SOL     MW 2028   2.078   0.961   4.341 -0.2629 -0.5388 -0.9609
  508SOL     OW 2029   0.104   3.061   2.750 -0.8231 -0.3048  0.5931
  508SOL    HW1 2030   0.116   3.015   2.667 -1.5799  0.7524 -0.1398
  508SOL    HW2 2031   0.188   3.101   2.767 -0.8707  0.1169 -0.0933
  508SOL     MW 2032   0.116   3.060   2.741 -0.9261 -0.1155  0.4114
  509SOL     OW 2033   3.402   3.694   4.590  0.5482 -0.3414  0.6091
  509SOL    HW1 2034   3.428   3.658   4.675  1.5879  2.7484  1.7169
  509SOL    HW2 2035   3.307   3.690   4.590  0.5291 -0.2038  2.0035
  509SOL     MW 2036   3.393   3.689   4.601  0.6788  0.0718  0.9294
  510SOL     OW 2037   2.586   4.136   2.725  0.3029  0.0063  0.1438
  510SOL    HW1 2038   2.582   4.072   2.653 -1.8254  1.4319 -1.1394
  510SOL    HW2 2039   2.639   4.208   2.690 -0.0965  0.3759  0.2919
  510SOL     MW 2040   2.592   4.137   2.711 -0.0207  0.2361 -0.0015
  511SOL     OW 2041   0.814   0.244   1.101 -0.2088  0.0606  0.1131
  511SOL    HW1 2042   0.875   0.194   1.046  1.0858  0.7741  0.8595
  511SOL    HW2 2043   0.731   0.239   1.054  0.5816 -0.3450 -1.3075
  511SOL     MW 2044   0.811   0.237   1.088  0.0581  0.1000  0.0268
  512SOL     OW 2045   4.717   3.067   4.433  0.0108  0.5393  0.3869
  512SOL    HW1 2046   4.666   3.082   4.512  1.0437  2.3529  0.7579
  512SOL    HW2 2047   4.804   3.040   4.466 -0.0485 -0.4062 -0.1877
  512SOL     MW 2048   4.722   3.065   4.448  0.1354  0.6504  0.3608
  513SOL     OW 2049   3.780   3.218   1.426 -0.0843 -0.6483 -0.0537
  513SOL    HW1 2050   3.727   3.139   1.414 -0.8685 -0.2586  0.7521
  513SOL    HW2 2051   3.775   3.236   1.520 -1.6918  1.5722 -0.4872
  513SOL     MW 2052   3.773   3.210   1.436 -0.3905 -0.3142 -0.0061
  514SOL     OW 2053   2.095   0.008   0.236  0.1529 -0.2710  0.1748
  514SOL    HW1 2054   2.145   0.049   0.166  2.0552  0.3245  1.7803
  514SOL    HW2 2055   2.064   0.080   0.290 -0.2382 -0.7628  0.6272
  514SOL     MW 2056   2.098   0.022   0.234  0.3464 -0.2577  0.4383
  515SOL     OW 2057   1.992   3.953   4.840  0.2688 -0.4153  0.5775
  515SOL    HW1 2058   1.958   3.867   4.817  1.8610 -0.5958 -1.3784
  515SOL    HW2 2059   1.945   4.014   4.783 -0.0464 -0.1023  1.1557
  515SOL     MW 2060   1.982   3.950   4.830  0.4323 -0.3983  0.4011
  516SOL     OW 2061   4.871   1.330   2.390  0.3207 -0.3628 -0.2278
  516SOL    HW1 2062   4.828   1.375   2.463 -0.4505 -1.0591 -0.2356
  516SOL    HW2 2063   4.872   1.238   2.417 -2.0744 -1.0299 -2.0198
  516SOL     MW 2064   4.865   1.324   2.403 -0.0846 -0.5373 -0.4582
  517SOL     OW 2065   2.069   2.815   5.069 -0.3181 -0.1663  0.4489
  517SOL    HW1 2066   2.115   2.898   5.061 -1.0557  0.1107 -1.4222
  517SOL    HW2 2067   2.040   2.812   5.161 -0.4404  1.7206  0.5007
  517SOL     MW 2068   2.071   2.825   5.080 -0.4282  0.1107  0.2160
  518SOL     OW 2069   3.586   0.293   3.219 -0.0719  0.2416  0.1795
  518SOL    HW1 2070   3.496   0.309   3.249 -0.3242 -1.2845  0.3177
  518SOL    HW2 2071   3.578   0.287   3.123  0.1313  1.5035  0.0718
  518SOL     MW 2072   3.573   0.294   3.210 -0.0782  0.2077  0.1834
  519SOL     OW 2073   1.447   2.204   1.422 -0.5825 -0.3351 -0.2812
  519SOL    HW1 2074   1.400   2.197   1.339 -0.5624  1.4811 -0.4754
  519SOL    HW2 2075   1.379   2.211   1.488 -0.6040 -2.0375 -0.0722
  519SOL     MW 2076   1.432   2.204   1.420 -0.5826 -0.3205 -0.2793
  520SOL     OW 2077   0.445   1.825   0.915 -0.2662 -0.0494  0.2201
  520SOL    HW1 2078   0.462   1.843   1.007  0.7940 -1.1316  0.2707
  520SOL    HW2 2079   0.433   1.730   0.911  0.6442 -0.1372 -0.8792
  520SOL     MW 2080   0.446   1.815   0.926 -0.0139 -0.1992  0.0858
  521SOL     OW 2081   4.808   5.027   1.515 -0.6733 -0.2137 -0.1637
  521SOL    HW1 2082   4.749   5.100   1.535  0.8527  0.8820  0.4914
  521SOL    HW2 2083   4.823   4.985   1.599  0.2463  0.1148 -0.1598
  521SOL     MW 2084   4.802   5.031   1.528 -0.3603 -0.0314 -0.0793
  522SOL     OW 2085   1.422   3.186   2.044 -0.1762  0.1381  0.2847
  522SOL    HW1 2086   1.362   3.229   1.983  0.4347 -0.4999 -0.7938
  522SOL    HW2 2087   1.508   3.223   2.022  0.1051 -0.3891  0.5013
  522SOL     MW 2088   1.425   3.197   2.033 -0.0620 -0.0110  0.1744
  523SOL     OW 2089   1.847   2.429   5.007 -0.5565  0.7031  0.2144
  523SOL    HW1 2090   1.809   2.516   5.021 -3.0276 -0.0970 -0.9147
  523SOL    HW2 2091   1.879   2.431   4.917 -0.8664  0.3536  0.0961
  523SOL     MW 2092   1.846   2.440   4.997 -0.9125  0.5559  0.0547
  524SOL     OW 2093   2.041   1.810   0.811 -0.5566  0.1994 -0.0264
  524SOL    HW1 2094   2.081   1.794   0.726  0.4595 -1.0393  0.6439
  524SOL    HW2 2095   2.115   1.820   0.871 -1.1181 -3.1016  1.4219
  524SOL     MW 2096   2.055   1.809   0.808 -0.4984 -0.3817  0.2448
  525SOL     OW 2097   1.727   4.943   0.603 -0.3412  0.0071 -0.0146
  525SOL    HW1 2098   1.814   4.955   0.565  0.0280 -1.7997  0.1927
  525SOL    HW2 2099   1.667   4.953   0.529 -0.0482  1.7731 -0.0727
  525SOL     MW 2100   1.731   4.946   0.589 -0.2564  0.0019  0.0045
  526SOL     OW 2101   5.140   1.753   1.458  0.3884 -0.5122 -0.6774
  526SOL    HW1 2102   5.185   1.776   1.376  2.0253 -1.9486 -0.2357
  526SOL    HW2 2103   5.207   1.761   1.525 -1.4238  2.7728  1.0075
  526SOL     MW 2104   5.154   1.757   1.456  0.3660 -0.2756 -0.4051
  527SOL     OW 2105   1.550   3.800   2.499 -0.1155 -0.2378 -0.0779
  527SOL    HW1 2106   1.582   3.839   2.580 -0.2968 -0.0363 -0.1029
  527SOL    HW2 2107   1.608   3.725   2.484 -0.8067 -0.9987  0.8863
  527SOL     MW 2108   1.561   3.795   2.508 -0.2272 -0.3094  0.0423
  528SOL     OW 2109   3.702   4.777   1.326  0.0981  0.1330  0.7144
  528SOL    HW1 2110   3.707   4.866   1.361  2.4462  0.5607 -0.5719
  528SOL    HW2 2111   3.655   4.786   1.243  1.9742  0.5368 -0.3480
  528SOL     MW 2112   3.696   4.789   1.320  0.6388  0.2395  0.4137
  529SOL     OW 2113   1.739   4.419   1.678  0.6134 -0.5467  0.7223
  529SOL    HW1 2114   1.821   4.376   1.700  0.8964 -0.6011 -0.3930
  529SOL    HW2 2115   1.763   4.488   1.616  0.1409  1.1205  2.2852
  529SOL     MW 2116   1.752   4.422   1.673  0.5891 -0.3402  0.7796
  530SOL     OW 2117   3.142   0.353   1.447 -0.2605 -0.3039  0.2397
  530SOL    HW1 2118   3.133   0.403   1.366  3.2850  0.1142 -0.0365
  530SOL    HW2 2119   3.078   0.391   1.506 -4.2279 -1.7095 -2.6892
  530SOL     MW 2120   3.133   0.364   1.444 -0.3145 -0.4303 -0.1706
  531SOL     OW 2121   1.966   5.404   0.967  0.1210 -0.2191  0.5044
  531SOL    HW1 2122   1.898   5.459   1.006 -0.7414 -0.5031 -0.5659
  531SOL    HW2 2123   1.919   5.330   0.930  0.9191 -0.0243 -0.9528
  531SOL     MW 2124   1.952   5.402   0.967  0.1128 -0.2306  0.1808
  532SOL     OW 2125   2.623   1.673   0.249  0.5522  0.1158  0.2623
  532SOL    HW1 2126   2.644   1.604   0.186 -1.8778 -0.6540  0.2255
  532SOL    HW2 2127   2.678   1.654   0.325  0.9431 -1.0109 -0.2834
  532SOL     MW 2128   2.633   1.662   0.251  0.2912 -0.1270  0.1877
  533SOL     OW 2129   4.076   2.094   3.077  0.4160  0.5387  0.3673
  533SOL    HW1 2130   4.063   2.187   3.058  0.6123  0.2702 -1.1945
  533SOL    HW2 2131   4.048   2.049   2.997  0.5543 -0.7360  1.0100
  533SOL     MW 2132   4.071   2.101   3.065  0.4588  0.3411  0.2497
  534SOL     OW 2133   4.257   5.358   2.153 -0.4437 -0.1595  0.1820
  534SOL    HW1 2134   4.347   5.389   2.139 -0.9338  1.2038 -0.1254
  534SOL    HW2 2135   4.256   5.329   2.245  0.4441 -0.7363  0.0291
  534SOL     MW 2136   4.268   5.358   2.163 -0.3928 -0.0588  0.1231
  535SOL     OW 2137   2.860   3.570   0.677  0.1979 -0.5224  0.6634
  535SOL    HW1 2138   2.877   3.558   0.584  1.9249 -0.2442  0.9110
  535SOL    HW2 2139   2.822   3.486   0.706 -0.1094 -0.6970 -0.2189
  535SOL     MW 2140   2.857   3.558   0.669  0.3796 -0.5092  0.5822
  536SOL     OW 2141   5.106   1.930   2.187 -0.1700  0.3292  0.1124
  536SOL    HW1 2142   5.024   1.907   2.144 -0.5705  1.1706  0.4263
  536SOL    HW2 2143   5.095   2.020   2.216  1.0813  0.6634 -0.3603
  536SOL     MW 2144   5.094   1.938   2.185 -0.0611  0.4797  0.0921
  537SOL     OW 2145   3.077   0.624   0.196  0.6664 -0.1320  0.2912
  537SOL    HW1 2146   3.035   0.570   0.262 -0.8270 -0.5966 -0.9757
  537SOL    HW2 2147   3.026   0.705   0.195  1.0107  0.0878  0.0800
  537SOL     MW 2148   3.065   0.628   0.204  0.5193 -0.1633  0.1020
  538SOL     OW 2149   4.179   0.688   1.499  0.1626  0.5969 -0.2825
  538SOL    HW1 2150   4.214   0.755   1.440  0.9337  0.6164  0.1763
  538SOL    HW2 2151   4.106   0.731   1.543  1.3147  1.5485  0.8022
  538SOL     MW 2152   4.174   0.702   1.497  0.4088  0.7212 -0.0849
  539SOL     OW 2153   3.190   0.801   2.162 -0.0679  0.0954  0.1027
  539SOL    HW1 2154   3.179   0.712   2.131 -0.9097 -0.4187  1.7611
  539SOL    HW2 2155   3.274   0.829   2.126  0.0004 -1.1948 -0.7905
  539SOL     MW 2156   3.199   0.793   2.154 -0.1669 -0.1356  0.2007
  540SOL     OW 2157   2.154   4.963   2.370  0.2634  0.5028 -0.0465
  540SOL    HW1 2158   2.145   5.043   2.422  1.8361  0.4534  0.3587
  540SOL    HW2 2159   2.066   4.945   2.338 -0.2390  2.0470  0.3753
  540SOL     MW 2160   2.142   4.971   2.373  0.4004  0.6941  0.0594
  541SOL     OW 2161   2.260   2.180   1.002  0.0185 -0.2216  0.1303
  541SOL    HW1 2162   2.176   2.225   1.012 -0.4865 -0.8740 -0.9042
  541SOL    HW2 2163   2.254   2.104   1.060  0.0323 -0.0747  0.3230
  541SOL     MW 2164   2.248   2.176   1.011 -0.0444 -0.2863  0.0225
  542SOL     OW 2165   0.863   1.237   0.076  0.3854  0.1088 -0.0422
  542SOL    HW1 2166   0.938   1.183   0.054  0.5699  0.7161 -0.9622
  542SOL    HW2 2167   0.853   1.297   0.001 -0.7743  0.2866  0.2278
  542SOL     MW 2168   0.871   1.238   0.064  0.2606  0.2093 -0.1254
  543SOL     OW 2169   1.411   1.300   2.992  0.4042  0.0418  0.3184
  543SOL    HW1 2170   1.467   1.349   3.052  1.5194 -1.1088  0.2659
  543SOL    HW2 2171   1.441   1.209   3.000  0.9020 -0.1119 -2.2662
  543SOL     MW 2172   1.422   1.295   3.001  0.6106 -0.1252 -0.0192
  544SOL     OW 2173   3.838   3.944   0.233  0.0342  0.1308 -0.0695
  544SOL    HW1 2174   3.909   4.001   0.262  1.4046 -0.7494 -1.4969
  544SOL    HW2 2175   3.776   4.003   0.190  0.1620  0.8457  0.7065
  544SOL     MW 2176   3.839   3.959   0.231  0.2260  0.1097 -0.1529
  545SOL     OW 2177   4.851   0.956   5.298  0.5267  0.1522 -0.0157
  545SOL    HW1 2178   4.816   0.943   5.210  0.2065  1.2121 -0.0634
  545SOL    HW2 2179   4.857   1.051   5.308  1.3387  0.0352  0.8081
  545SOL     MW 2180   4.847   0.966   5.288  0.5896  0.2729  0.0837
  546SOL     OW 2181   3.145   3.612   1.334  0.5663  0.0600  0.1157
  546SOL    HW1 2182   3.153   3.631   1.241 -0.1807  1.7414  0.3478
  546SOL    HW2 2183   3.218   3.554   1.354  1.6296  0.8988 -1.2118
  546SOL     MW 2184   3.155   3.607   1.325  0.6068  0.3826 -0.0245
  547SOL     OW 2185   2.286   4.423   4.415 -0.1059 -0.4521  0.2590
  547SOL    HW1 2186   2.278   4.334   4.380 -1.4025  0.0404 -0.8018
  547SOL    HW2 2187   2.204   4.436   4.464  0.7474 -0.3673  1.7130
  547SOL     MW 2188   2.274   4.413   4.417 -0.1627 -0.3782  0.3093
  548SOL     OW 2189   3.134   4.639   2.939 -0.0539 -0.0195  0.1837
  548SOL    HW1 2190   3.074   4.572   2.971  1.0889 -0.8124  0.7441
  548SOL    HW2 2191   3.080   4.718   2.929 -1.0699 -0.5679  1.1683
  548SOL     MW 2192   3.119   4.641   2.942 -0.0377 -0.1912  0.3815
  549SOL     OW 2193   4.165   2.914   3.997 -0.3919 -0.2348 -0.5985
  549SOL    HW1 2194   4.077   2.925   3.961 -0.3900  1.0930 -0.2362
  549SOL    HW2 2195   4.154   2.924   4.091  0.2586  0.8622 -0.6204
  549SOL     MW 2196   4.153   2.917   4.004 -0.3084  0.0756 -0.5549
  550SOL     OW 2197   3.690   3.925   0.489  0.2136 -0.1206 -0.1100
  550SOL    HW1 2198   3.727   3.850   0.536  0.5138  0.4674  0.6199
  550SOL    HW2 2199   3.718   3.912   0.398  1.1022 -0.3793  0.1895
  550SOL     MW 2200   3.698   3.914   0.483  0.3658 -0.0785  0.0218
  551SOL     OW 2201   2.410   0.483   3.223  0.3754 -0.3737  0.5158
  551SOL    HW1 2202   2.413   0.501   3.129 -1.6563 -1.9737  0.0809
  551SOL    HW2 2203   2.502   0.475   3.248  0.9694  0.4009 -1.2552
  551SOL     MW 2204   2.422   0.484   3.214  0.1914 -0.4794  0.2334
  552SOL     OW 2205   4.336   4.068   3.144  0.1024  0.0022  0.7867
  552SOL    HW1 2206   4.356   4.003   3.211  0.5632  2.0475  2.7936
  552SOL    HW2 2207   4.421   4.099   3.114 -0.1079 -0.2159 -0.0602
  552SOL     MW 2208   4.349   4.064   3.149  0.1345  0.2361  0.9352
  553SOL     OW 2209   3.478   2.864   2.982  0.8547 -0.5367  0.2953
  553SOL    HW1 2210   3.500   2.957   2.977  0.1042 -0.4038 -0.9325
  553SOL    HW2 2211   3.382   2.862   2.985  0.8781 -1.2497  1.4271
  553SOL     MW 2212   3.468   2.876   2.982  0.7616 -0.6109  0.2830
  554SOL     OW 2213   0.220   0.029   4.920 -0.4824  0.3293  0.0594
  554SOL    HW1 2214   0.235   0.100   4.982  1.1138  0.2488 -0.1940
  554SOL    HW2 2215   0.190  -0.044   4.975  1.4804  0.0676  0.8855
  554SOL     MW 2216   0.218   0.028   4.935 -0.0268  0.2855  0.1327
  555SOL     OW 2217   3.582   0.185   0.171 -0.3299  0.1664 -0.3182
  555SOL    HW1 2218   3.673   0.193   0.143 -0.4945 -0.7471 -1.1509
  555SOL    HW2 2219   3.532   0.224   0.099 -0.6164  0.3128 -0.0382
  555SOL     MW 2220   3.587   0.191   0.158 -0.3877  0.0682 -0.3889
  556SOL     OW 2221   4.627   3.309   4.029 -0.0230  0.7913 -0.2356
  556SOL    HW1 2222   4.698   3.292   4.091  0.6073  0.8365 -0.9276
  556SOL    HW2 2223   4.580   3.226   4.023 -0.2533  0.8607  0.4933
  556SOL     MW 2224   4.630   3.296   4.036  0.0282  0.8060 -0.2309
  557SOL     OW 2225   2.826   3.117   1.702  0.0084  0.1839 -0.1455
  557SOL    HW1 2226   2.822   3.182   1.631  0.1107  2.4029  1.7398
  557SOL    HW2 2227   2.739   3.121   1.742 -0.2072 -1.4144 -0.4120
  557SOL     MW 2228   2.814   3.126   1.698 -0.0061  0.2633  0.0617
  558SOL     OW 2229   4.859   2.236   2.252  0.2454 -0.1734  0.1489
  558SOL    HW1 2230   4.797   2.252   2.181 -1.5177 -1.9244  1.1968
  558SOL    HW2 2231   4.850   2.313   2.308 -2.0135 -0.9291  0.9349
  558SOL     MW 2232   4.850   2.248   2.250 -0.2695 -0.4943  0.3836
  559SOL     OW 2233   0.927   1.046   5.140  0.6697 -0.0683 -0.3429
  559SOL    HW1 2234   0.850   1.093   5.170  1.0672  0.6294 -0.3875
  559SOL    HW2 2235   0.902   1.011   5.054  0.9456  1.5720 -1.1152
  559SOL     MW 2236   0.914   1.047   5.133  0.7559  0.2310 -0.4474
  560SOL     OW 2237   3.249   3.855   1.708  0.2265 -0.8054 -0.4597
  560SOL    HW1 2238   3.304   3.897   1.775  1.7862 -1.7111 -1.1003
  560SOL    HW2 2239   3.178   3.916   1.693  0.9863  0.3669  0.5263
  560SOL     MW 2240   3.247   3.868   1.715  0.5234 -0.7713 -0.4155
  561SOL     OW 2241   2.507   2.197   4.853  0.4876  0.0843 -0.3438
  561SOL    HW1 2242   2.541   2.215   4.940  1.5274 -1.0513 -0.4949
  561SOL    HW2 2243   2.484   2.283   4.818  0.5870  0.6046  0.8228
  561SOL     MW 2244   2.508   2.211   4.860  0.6334  0.0056 -0.2138
  562SOL     OW 2245   2.386   4.110   0.806 -0.0552  0.0281 -0.0602
  562SOL    HW1 2246   2.418   4.199   0.818  2.0484 -0.6281 -0.4728
  562SOL    HW2 2247   2.432   4.078   0.728 -1.7708 -0.9900 -0.7068
  562SOL     MW 2248   2.396   4.117   0.797 -0.0055 -0.1862 -0.1958
  563SOL     OW 2249   2.593   0.452   1.227  0.2803 -0.0608 -0.4531
  563SOL    HW1 2250   2.670   0.425   1.278 -0.3658 -0.5595  0.2828
  563SOL    HW2 2251   2.624   0.525   1.174  1.2191 -0.1412 -0.0400
  563SOL     MW 2252   2.607   0.458   1.227  0.3177 -0.1349 -0.3060
  564SOL     OW 2253   5.206   5.357   0.731 -0.1142  0.2917 -0.7346
  564SOL    HW1 2254   5.253   5.341   0.649  2.0068 -0.6317  0.5634
  564SOL    HW2 2255   5.242   5.439   0.764 -0.9755  0.6739 -0.7308
  564SOL     MW 2256   5.217   5.366   0.725  0.0470  0.2224 -0.5680
  565SOL     OW 2257   0.510   2.521   4.503  0.1275  0.1917  0.1225
  565SOL    HW1 2258   0.528   2.478   4.419  0.7425  2.9675 -1.2951
  565SOL    HW2 2259   0.418   2.501   4.521  0.2559 -1.2641 -0.6682
  565SOL     MW 2260   0.501   2.513   4.494  0.2227  0.3607 -0.1602
  566SOL     OW 2261   1.663   3.693   3.807 -1.0185  0.3150 -0.4071
  566SOL    HW1 2262   1.659   3.599   3.820 -0.9397  0.2881 -0.5694
  566SOL    HW2 2263   1.747   3.720   3.846 -0.7790  0.2335 -0.8543
  566SOL     MW 2264   1.674   3.684   3.813 -0.9778  0.3011 -0.4851
  567SOL     OW 2265   4.451   1.823   5.028 -0.3197 -0.3007 -0.2636
  567SOL    HW1 2266   4.378   1.763   5.016 -0.6159  0.0565 -0.2539
  567SOL    HW2 2267   4.515   1.773   5.079 -2.0101  0.5137  2.8853
  567SOL     MW 2268   4.450   1.809   5.033 -0.5740 -0.1507  0.1407
  568SOL     OW 2269   4.391   2.187   3.091  0.0733 -0.4033 -0.5070
  568SOL    HW1 2270   4.417   2.104   3.052  0.0104 -1.6842  1.9737
  568SOL    HW2 2271   4.296   2.179   3.101 -0.2121  0.7848 -1.9244
  568SOL     MW 2272   4.382   2.176   3.088  0.0287 -0.4152 -0.3709
  569SOL     OW 2273   1.946   4.486   5.451 -0.0886 -0.6318 -0.2496
  569SOL    HW1 2274   2.009   4.540   5.402  0.6527 -2.5408 -1.5245
  569SOL    HW2 2275   1.905   4.431   5.384 -0.3057 -2.1206  1.0577
  569SOL     MW 2276   1.949   4.486   5.436 -0.0215 -1.0667 -0.2454
  570SOL     OW 2277   2.234   2.026   3.688 -0.2561  0.4017  0.8464
  570SOL    HW1 2278   2.274   2.046   3.772  1.9748 -1.6335  0.3796
  570SOL    HW2 2279   2.299   1.972   3.642 -1.7308  0.7117 -1.8486
  570SOL     MW 2280   2.248   2.022   3.693 -0.1593  0.1809  0.4416
  571SOL     OW 2281   0.099   3.511   4.232 -0.1022 -0.0837  1.2727
  571SOL    HW1 2282   0.021   3.563   4.253 -1.6237 -1.4307 -0.6463
  571SOL    HW2 2283   0.146   3.564   4.168 -1.2222 -0.6446 -0.0653
  571SOL     MW 2284   0.095   3.524   4.227 -0.4403 -0.3279  0.8557
  572SOL     OW 2285   2.693   5.300   2.696 -0.1386  0.0829  0.4739
  572SOL    HW1 2286   2.691   5.209   2.725 -2.1437  0.0367  0.3071
  572SOL    HW2 2287   2.662   5.350   2.771  2.9656  0.9510  1.3429
  572SOL     MW 2288   2.689   5.295   2.709  0.0021  0.1881  0.5638
  573SOL     OW 2289   3.675   1.522   4.592  0.2606  0.4673 -0.3719
  573SOL    HW1 2290   3.746   1.578   4.562  0.8774 -0.2027 -0.1953
  573SOL    HW2 2291   3.643   1.566   4.671 -0.6871  1.6827 -1.3928
  573SOL     MW 2292   3.680   1.535   4.599  0.2182  0.5371 -0.4800
  574SOL     OW 2293   0.771   3.735   5.414  0.2787  0.1940  0.3687
  574SOL    HW1 2294   0.842   3.672   5.404  0.4160  0.5981 -1.5469
  574SOL    HW2 2295   0.697   3.694   5.368  0.3609  1.3649 -0.8589
  574SOL     MW 2296   0.770   3.721   5.407  0.3068  0.3957 -0.0336
  575SOL     OW 2297   3.495   3.004   2.643  0.2315 -0.3344  0.1646
  575SOL    HW1 2298   3.563   3.035   2.583 -0.6924  0.6732 -0.3790
  575SOL    HW2 2299   3.413   3.032   2.604 -0.4448 -0.4809  1.4316
  575SOL     MW 2300   3.493   3.012   2.630  0.0266 -0.2242  0.2572
  576SOL     OW 2301   1.137   3.512   0.409 -0.0530 -0.4913  0.2028
  576SOL    HW1 2302   1.109   3.518   0.501 -0.7156  0.4414 -0.0354
  576SOL    HW2 2303   1.085   3.440   0.373 -0.5030 -0.2386  0.3333
  576SOL     MW 2304   1.127   3.504   0.417 -0.1954 -0.3395  0.1890
  577SOL     OW 2305   3.872   2.168   4.703 -0.3814 -0.0892 -0.5860
  577SOL    HW1 2306   3.914   2.207   4.626  1.0587  0.0042  0.2129
  577SOL    HW2 2307   3.783   2.150   4.674 -0.3750  1.4849 -1.7632
  577SOL     MW 2308   3.866   2.171   4.689 -0.1962  0.1243 -0.6344
  578SOL     OW 2309   4.089   3.457   4.438  0.5632 -0.7422 -0.3790
  578SOL    HW1 2310   4.037   3.537   4.428 -0.0772 -1.1052 -0.0105
  578SOL    HW2 2311   4.136   3.448   4.355 -0.8855 -1.0617 -1.1955
  578SOL     MW 2312   4.088   3.466   4.426  0.2958 -0.8296 -0.4364
  579SOL     OW 2313   1.538   0.119   1.525 -0.3946  0.5828  0.0448
  579SOL    HW1 2314   1.538   0.067   1.605 -0.2590 -0.5376 -0.6507
  579SOL    HW2 2315   1.552   0.209   1.554 -0.4611  0.2135  1.2781
  579SOL     MW 2316   1.540   0.124   1.539 -0.3857  0.3921  0.1136
  580SOL     OW 2317   0.120   0.446   1.068  0.6477 -0.3195  0.3838
  580SOL    HW1 2318   0.112   0.358   1.103  0.9028 -0.7379 -0.5687
  580SOL    HW2 2319   0.110   0.436   0.974 -0.2271  0.7992  0.3347
  580SOL     MW 2320   0.118   0.434   1.061  0.5684 -0.2298  0.2556
  581SOL     OW 2321   3.628   1.653   2.772 -0.8101  0.6308 -0.3897
  581SOL    HW1 2322   3.571   1.637   2.847 -1.4187  1.4445 -0.6662
  581SOL    HW2 2323   3.572   1.641   2.696 -0.2222 -0.0704 -0.7151
  581SOL     MW 2324   3.614   1.649   2.772 -0.8128  0.6452 -0.4668
  582SOL     OW 2325   0.088   1.535   0.417  0.3903 -0.0363 -0.1665
  582SOL    HW1 2326   0.003   1.495   0.401  0.1819  0.4024 -0.1818
  582SOL    HW2 2327   0.134   1.473   0.474 -0.4336  0.3119  0.9048
  582SOL     MW 2328   0.083   1.522   0.423  0.2582  0.0644 -0.0313
  583SOL     OW 2329   2.470   0.429   2.916  0.3575  0.4903  0.4000
  583SOL    HW1 2330   2.453   0.468   2.830 -1.7742  1.7504  1.3123
  583SOL    HW2 2331   2.541   0.482   2.952  1.3072 -0.0808 -0.5727
  583SOL     MW 2332   2.477   0.441   2.910  0.2062  0.5785  0.3923
  584SOL     OW 2333   2.002   0.650   1.407  0.0390 -0.2202 -0.6747
  584SOL    HW1 2334   1.940   0.577   1.402  0.6143 -0.9327  1.5220
  584SOL    HW2 2335   2.084   0.615   1.373 -0.2337  0.1437 -1.7669
  584SOL     MW 2336   2.004   0.637   1.402  0.0777 -0.2648 -0.5333
  585SOL     OW 2337   3.643   0.493   3.543 -0.3391 -0.4402  0.2157
  585SOL    HW1 2338   3.687   0.501   3.458 -1.1685 -0.2694 -0.2100
  585SOL    HW2 2339   3.590   0.414   3.535 -1.8393  0.5512 -0.1159
  585SOL     MW 2340   3.642   0.484   3.531 -0.6374 -0.2914  0.1188
  586SOL     OW 2341   1.797   5.013   2.054 -0.2008 -0.1047  0.0213
  586SOL    HW1 2342   1.822   5.105   2.046  0.6319 -0.1874  1.3283
  586SOL    HW2 2343   1.710   5.015   2.095 -0.3931  0.1055 -0.3936
  586SOL     MW 2344   1.789   5.025   2.059 -0.1189 -0.0884  0.1355
  587SOL     OW 2345   1.777   3.502   1.898 -0.2382 -0.1345 -0.0522
  587SOL    HW1 2346   1.769   3.593   1.925 -2.5039 -0.0469 -0.7874
  587SOL    HW2 2347   1.731   3.497   1.814  2.2302 -1.4280 -1.4728
  587SOL     MW 2348   1.770   3.513   1.891 -0.2122 -0.2889 -0.3282
  588SOL     OW 2349   0.119   1.960   0.159 -0.2578 -0.1390  0.1717
  588SOL    HW1 2350   0.163   1.963   0.074 -0.0099  1.8647  0.3038
  588SOL    HW2 2351   0.053   2.029   0.153 -1.0427 -0.7739  1.2055
  588SOL     MW 2352   0.116   1.970   0.147 -0.3265  0.0362  0.3210
  589SOL     OW 2353   5.292   0.359   3.904 -0.6329 -0.8071  0.4831
  589SOL    HW1 2354   5.380   0.324   3.888 -1.0086 -2.1587  1.1823
  589SOL    HW2 2355   5.248   0.290   3.955 -2.2439 -0.3447 -0.2266
  589SOL     MW 2356   5.298   0.346   3.909 -0.8872 -0.9210  0.4818
  590SOL     OW 2357   1.271   2.149   3.401  0.0319  0.4147  0.9084
  590SOL    HW1 2358   1.312   2.067   3.372  1.0528  1.8314 -1.9848
  590SOL    HW2 2359   1.181   2.143   3.369  0.4290  0.8693 -0.3387
  590SOL     MW 2360   1.265   2.138   3.394  0.2135  0.6543  0.3784
  591SOL     OW 2361   4.689   2.761   4.726  0.3846  0.7244  0.1065
  591SOL    HW1 2362   4.780   2.786   4.712  0.3449  0.6206 -0.3643
  591SOL    HW2 2363   4.666   2.797   4.812  0.2929  2.3677 -0.5861
  591SOL     MW 2364   4.698   2.769   4.735  0.3678  0.9215 -0.0424
  592SOL     OW 2365   2.356   2.596   3.530 -0.7396  0.4911 -0.5280
  592SOL    HW1 2366   2.388   2.681   3.560 -2.2783  0.3225  1.8217
  592SOL    HW2 2367   2.261   2.602   3.536 -0.9854 -0.8264 -2.1051
  592SOL     MW 2368   2.348   2.608   3.534 -0.9680  0.3009 -0.4291
  593SOL     OW 2369   1.358   2.241   0.925 -0.0564 -0.0549  0.0813
  593SOL    HW1 2370   1.441   2.289   0.927  0.3973 -0.8339  0.0860
  593SOL    HW2 2371   1.335   2.229   1.017 -0.6118  0.8918  0.0790
  593SOL     MW 2372   1.366   2.246   0.937 -0.0694 -0.0335  0.0816
  594SOL     OW 2373   0.484   4.527   2.515  0.5193 -0.5618  0.4223
  594SOL    HW1 2374   0.485   4.563   2.427 -2.0360 -0.2126  0.4553
  594SOL    HW2 2375   0.438   4.443   2.506 -0.2239 -0.2882  1.4665
  594SOL     MW 2376   0.478   4.521   2.503  0.0971 -0.4821  0.5602
  595SOL     OW 2377   4.921   1.098   0.129  0.1204 -0.2238  0.3003
  595SOL    HW1 2378   4.940   1.014   0.088 -0.0494 -0.3567  0.4938
  595SOL    HW2 2379   4.879   1.150   0.060  0.5934 -0.1552  0.0623
  595SOL     MW 2380   4.918   1.094   0.115  0.1592 -0.2320  0.2946
  596SOL     OW 2381   0.758   5.208   4.642  0.2497  0.0165  0.0599
  596SOL    HW1 2382   0.816   5.132   4.641  1.1508  0.6888 -1.6043
  596SOL    HW2 2383   0.816   5.283   4.626 -1.1946  0.5386 -3.9125
  596SOL     MW 2384   0.773   5.208   4.640  0.1802  0.1694 -0.6617
  597SOL     OW 2385   1.432   1.891   2.948  0.2725  0.6696  0.4145
  597SOL    HW1 2386   1.385   1.972   2.968  0.2612  0.6489  0.4715
  597SOL    HW2 2387   1.363   1.830   2.922  0.2611  0.6213  0.5553
  597SOL     MW 2388   1.417   1.894   2.947  0.2696  0.6607  0.4398
  598SOL     OW 2389   1.265   3.727   2.248 -0.4447  0.1132  0.5027
  598SOL    HW1 2390   1.311   3.793   2.196 -0.7931 -0.0706 -0.0400
  598SOL    HW2 2391   1.228   3.777   2.321  2.0469  0.0336  1.9635
  598SOL     MW 2392   1.266   3.742   2.251 -0.1704  0.0795  0.6202
  599SOL     OW 2393   3.111   2.166   1.584  0.0230 -0.2428 -0.1765
  599SOL    HW1 2394   3.056   2.213   1.648  0.4262  0.0350 -0.0250
  599SOL    HW2 2395   3.177   2.122   1.637 -0.4252 -1.0919 -0.3133
  599SOL     MW 2396   3.112   2.167   1.599  0.0172 -0.3159 -0.1746
  600SOL     OW 2397   5.434   4.643   0.594  0.2157 -0.3547  0.0818
  600SOL    HW1 2398   5.387   4.578   0.646  1.0763 -0.0802  1.2306
  600SOL    HW2 2399   5.446   4.601   0.509  0.7185 -1.6831  0.7921
  600SOL     MW 2400   5.429   4.629   0.590  0.3902 -0.4896  0.3198
  601SOL     OW 2401   2.352   4.958   0.427  0.0001  0.2462  0.4599
  601SOL    HW1 2402   2.447   4.967   0.422  0.2355 -1.1441  1.6510
  601SOL    HW2 2403   2.335   4.936   0.519 -1.4274  0.0484  0.1696
  601SOL     MW 2404   2.362   4.956   0.438 -0.1525  0.0429  0.5752
  602SOL     OW 2405   1.298   4.812   3.944  0.3821  0.2078  0.3379
  602SOL    HW1 2406   1.205   4.830   3.927  0.2498  0.0637  0.9150
  602SOL    HW2 2407   1.327   4.884   3.998  0.2336 -0.4986  1.3842
  602SOL     MW 2408   1.290   4.823   3.948  0.3461  0.0989  0.5457
  603SOL     OW 2409   1.733   5.282   0.641 -0.2805 -0.3793 -0.4539
  603SOL    HW1 2410   1.667   5.345   0.670 -1.8199 -1.5200 -1.3171
  603SOL    HW2 2411   1.690   5.233   0.571  0.9131 -2.2696  0.0681
  603SOL     MW 2412   1.719   5.284   0.636 -0.3247 -0.7673 -0.4976
  604SOL     OW 2413   0.919   5.394   1.594 -0.3528  0.0474  0.2063
  604SOL    HW1 2414   0.944   5.341   1.518  0.7876  1.8786 -0.7784
  604SOL    HW2 2415   0.833   5.428   1.572 -0.3848 -0.1011  0.1010
  604SOL     MW 2416   0.911   5.392   1.582 -0.2109  0.2628  0.0667
  605SOL     OW 2417   0.286   1.589   3.280  0.3702  0.0235 -0.0890
  605SOL    HW1 2418   0.319   1.576   3.192 -0.0189  1.3365 -0.4539
  605SOL    HW2 2419   0.253   1.503   3.307 -1.8723  0.1244 -2.2067
  605SOL     MW 2420   0.286   1.576   3.272  0.0333  0.2045 -0.4068
  606SOL     OW 2421   5.380   3.155   0.113  0.0653 -0.2475  0.1115
  606SOL    HW1 2422   5.311   3.145   0.179  0.3881  0.1747  0.5216
  606SOL    HW2 2423   5.415   3.067   0.102  0.4537 -0.2161  1.0062
  606SOL     MW 2424   5.376   3.143   0.120  0.1563 -0.1894  0.2785
  607SOL     OW 2425   1.422   5.166   3.399 -0.5466  0.0162 -0.0431
  607SOL    HW1 2426   1.338   5.188   3.359 -0.5984  1.2248  0.7028
  607SOL    HW2 2427   1.475   5.245   3.392  0.7112 -0.8548 -0.8931
  607SOL     MW 2428   1.418   5.179   3.393 -0.3922  0.0594 -0.0564
  608SOL     OW 2429   1.286   1.879   1.062 -0.1472 -0.2040  0.2383
  608SOL    HW1 2430   1.195   1.851   1.049 -0.3798  0.0743  1.1608
  608SOL    HW2 2431   1.325   1.875   0.975 -1.0698 -0.2462 -0.1896
  608SOL     MW 2432   1.279   1.875   1.049 -0.2951 -0.1738  0.3016
  609SOL     OW 2433   3.316   3.828   1.162 -0.2891 -0.9400 -0.0883
  609SOL    HW1 2434   3.396   3.877   1.143 -0.2924 -1.3216 -1.1944
  609SOL    HW2 2435   3.309   3.829   1.257  1.7551 -2.0324  0.1306
  609SOL     MW 2436   3.325   3.835   1.171 -0.0279 -1.1287 -0.2019
  610SOL     OW 2437   1.439   3.489   1.297 -0.1949  0.5274  0.2261
  610SOL    HW1 2438   1.524   3.502   1.255 -0.5382 -0.8102 -1.0188
  610SOL    HW2 2439   1.459   3.460   1.386  0.6132  1.4399  0.3479
  610SOL     MW 2440   1.452   3.487   1.303 -0.1354  0.4730  0.0824
  611SOL     OW 2441   1.889   3.636   0.248  0.2795 -0.1089  0.4771
  611SOL    HW1 2442   1.834   3.565   0.214 -0.3329 -0.0943  1.4163
  611SOL    HW2 2443   1.978   3.613   0.219 -0.1702 -0.2559 -0.8382
  611SOL     MW 2444   1.894   3.624   0.240  0.1435 -0.1259  0.4290
  612SOL     OW 2445   1.699   1.935   4.035  0.0784 -1.1867  0.0385
  612SOL    HW1 2446   1.663   1.885   4.108 -1.7997 -1.6055 -1.1180
  612SOL    HW2 2447   1.628   1.995   4.009  1.3364  0.2127 -0.3242
  612SOL     MW 2448   1.685   1.937   4.041 -0.0010 -1.0612 -0.1560
  613SOL     OW 2449   0.199   5.372   1.960 -0.0584  0.4844 -0.7644
  613SOL    HW1 2450   0.181   5.375   2.053 -1.5369  0.2120 -1.0176
  613SOL    HW2 2451   0.213   5.463   1.935 -2.2439  0.8876 -0.7111
  613SOL     MW 2452   0.199   5.384   1.968 -0.5274  0.5012 -0.7900
  614SOL     OW 2453   0.717   2.539   4.272 -0.7447  0.8761 -0.5008
  614SOL    HW1 2454   0.735   2.560   4.180 -0.7717 -0.3776 -0.8083
  614SOL    HW2 2455   0.800   2.555   4.317  0.0621 -1.0302 -1.2210
  614SOL     MW 2456   0.730   2.544   4.266 -0.6449  0.4716 -0.6324
  615SOL     OW 2457   1.982   1.559   3.678 -0.1387  0.0015  0.1601
  615SOL    HW1 2458   2.046   1.505   3.724  0.1169  1.0570  1.0794
  615SOL    HW2 2459   2.004   1.649   3.702 -1.9512  0.4005  0.5236
  615SOL     MW 2460   1.993   1.563   3.687 -0.3380  0.1877  0.3243
  616SOL     OW 2461   3.944   0.253   1.081  0.4342  0.1057 -0.1458
  616SOL    HW1 2462   3.911   0.164   1.090  0.7537  0.1078  1.1225
  616SOL    HW2 2463   3.990   0.253   0.997  1.9621 -1.4165  0.6548
  616SOL     MW 2464   3.945   0.242   1.071  0.6707 -0.0889  0.1191
  617SOL     OW 2465   1.899   3.340   1.299 -0.5483  0.1417 -0.2324
  617SOL    HW1 2466   1.862   3.257   1.269  1.7755 -1.3282  0.6720
  617SOL    HW2 2467   1.870   3.348   1.390 -1.7349  0.9742 -0.6564
  617SOL     MW 2468   1.891   3.330   1.307 -0.4028  0.0601 -0.1709
  618SOL     OW 2469   3.587   2.576   4.319  0.0814 -0.3935 -0.5792
  618SOL    HW1 2470   3.582   2.624   4.403  3.1513 -1.4893  0.3327
  618SOL    HW2 2471   3.516   2.614   4.267 -0.9030  1.5043  1.8974
  618SOL     MW 2472   3.577   2.587   4.323  0.3484 -0.2908 -0.1454
  619SOL     OW 2473   1.751   2.736   5.007 -0.0535  0.2394  0.2996
  619SOL    HW1 2474   1.751   2.770   5.096 -1.4822  2.4107 -0.4480
  619SOL    HW2 2475   1.841   2.748   4.977  0.1734  0.5337  1.0791
  619SOL     MW 2476   1.763   2.742   5.014 -0.2074  0.5550  0.3037
  620SOL     OW 2477   4.909   3.007   2.936 -0.0913 -0.2039  0.6361
  620SOL    HW1 2478   4.843   2.997   2.868  1.8376 -0.3213 -1.3476
  620SOL    HW2 2479   4.935   2.918   2.958  1.7649 -0.2154 -1.1814
  620SOL     MW 2480   4.904   2.994   2.930  0.3932 -0.2204  0.1495
  621SOL     OW 2481   2.349   4.905   1.118 -0.0891 -0.1789  0.1665
  621SOL    HW1 2482   2.351   4.964   1.193  0.2438  0.2463 -0.1724
  621SOL    HW2 2483   2.308   4.956   1.048  1.1715  0.0584 -0.4466
  621SOL     MW 2484   2.344   4.919   1.119  0.1149 -0.0941  0.0446
  622SOL     OW 2485   4.036   4.430   0.915  0.1622 -0.8197  0.4054
  622SOL    HW1 2486   4.102   4.370   0.950  0.2108 -2.3118 -2.0351
  622SOL    HW2 2487   3.994   4.382   0.844  1.1936  2.4851 -2.7230
  622SOL     MW 2488   4.039   4.416   0.911  0.3004 -0.5876 -0.3074
  623SOL     OW 2489   1.284   5.190   0.569  0.0353  0.5578 -0.2805
  623SOL    HW1 2490   1.306   5.187   0.662 -2.2086  2.1625  0.3950
  623SOL    HW2 2491   1.262   5.100   0.547  2.4102 -0.2066  0.1766
  623SOL     MW 2492   1.284   5.178   0.579  0.0521  0.6654 -0.1355
  624SOL     OW 2493   3.573   5.247   0.973 -0.2095 -0.0775 -0.4756
  624SOL    HW1 2494   3.519   5.170   0.954  0.5826 -0.3275 -1.9107
  624SOL    HW2 2495   3.661   5.211   0.987  0.2116  0.5682 -1.4008
  624SOL     MW 2496   3.577   5.232   0.972 -0.0542 -0.0268 -0.7777
  625SOL     OW 2497   0.822   4.106   4.387  0.0816 -0.2087  0.6700
  625SOL    HW1 2498   0.730   4.133   4.391 -0.5844 -2.0695 -0.6274
  625SOL    HW2 2499   0.871   4.187   4.401 -1.7581  1.1617 -0.2906
  625SOL     MW 2500   0.817   4.120   4.389 -0.2392 -0.2715  0.3810
  626SOL     OW 2501   1.676   0.538   0.685 -0.6725  0.0093  0.4449
  626SOL    HW1 2502   1.752   0.568   0.635 -1.4418  1.1777 -0.0567
  626SOL    HW2 2503   1.692   0.444   0.699 -0.6995 -0.5578 -2.5539
  626SOL     MW 2504   1.688   0.530   0.680 -0.7745  0.0862 -0.0032
  627SOL     OW 2505   4.719   0.184   3.768  0.3878 -0.4119  0.0474
  627SOL    HW1 2506   4.754   0.265   3.733  1.1645 -1.7502 -2.4991
  627SOL    HW2 2507   4.655   0.212   3.834  1.2502  2.1945 -0.1173
  627SOL     MW 2508   4.715   0.198   3.772  0.5976 -0.2496 -0.2997
  628SOL     OW 2509   2.267   4.413   1.032  0.0466  0.4636  0.3900
  628SOL    HW1 2510   2.339   4.414   0.968  1.4983 -0.4886  1.9431
  628SOL    HW2 2511   2.310   4.428   1.116 -1.5064 -0.6144  1.4181
  628SOL     MW 2512   2.282   4.415   1.034  0.0336  0.2037  0.7204
  629SOL     OW 2513   4.633   4.345   4.188 -0.0921  0.2039 -0.2825
  629SOL    HW1 2514   4.633   4.307   4.276  0.0038 -0.9140 -0.7464
  629SOL    HW2 2515   4.709   4.306   4.145  0.3195  1.3509 -0.6168
  629SOL     MW 2516   4.643   4.335   4.194 -0.0272  0.2076 -0.3847
  630SOL     OW 2517   0.730   3.998   3.711  0.0644  0.2699 -0.1888
  630SOL    HW1 2518   0.647   4.029   3.675  0.2217  0.6601 -0.2164
  630SOL    HW2 2519   0.787   3.987   3.634 -0.5555 -1.8981 -0.4074
  630SOL     MW 2520   0.727   4.001   3.696  0.0052  0.0423 -0.2203
  631SOL     OW 2521   2.708   4.372   0.772 -0.0657 -0.1927  0.1548
  631SOL    HW1 2522   2.731   4.284   0.742 -1.8239 -0.5999 -0.1238
  631SOL    HW2 2523   2.686   4.361   0.864 -1.0083 -0.2229 -0.0566
  631SOL     MW 2524   2.708   4.359   0.780 -0.4115 -0.2487  0.0921
  632SOL     OW 2525   0.212   1.328   3.342  0.2476  0.0066 -0.1413
  632SOL    HW1 2526   0.120   1.305   3.355  1.2455 -3.6570  1.9061
  632SOL    HW2 2527   0.241   1.271   3.270  1.0678  0.6803 -0.3615
  632SOL     MW 2528   0.204   1.318   3.335  0.4803 -0.3761  0.0926
  633SOL     OW 2529   5.438   2.193   0.101 -0.4833  0.5947 -0.3002
  633SOL    HW1 2530   5.393   2.160   0.024  1.3374 -1.1071 -0.6994
  633SOL    HW2 2531   5.524   2.221   0.069  0.1814  0.1573  1.0224
  633SOL     MW 2532   5.443   2.192   0.087 -0.1651  0.3209 -0.1820
  634SOL     OW 2533   2.665   0.851   2.920 -0.4237 -0.0702 -0.5250
  634SOL    HW1 2534   2.745   0.891   2.887 -0.4023  0.6557  0.3518
  634SOL    HW2 2535   2.600   0.868   2.852  0.2163 -0.9206 -1.3759
  634SOL     MW 2536   2.667   0.859   2.907 -0.3390 -0.0861 -0.5217
  635SOL     OW 2537   5.301   4.105   1.520 -0.2878  0.1822  0.1730
  635SOL    HW1 2538   5.265   4.061   1.597  0.8882  0.4388  0.8869
  635SOL    HW2 2539   5.390   4.129   1.545  0.1853  0.1009 -1.3388
  635SOL     MW 2540   5.308   4.102   1.533 -0.0767  0.2046  0.0708
  636SOL     OW 2541   4.643   3.913   3.581 -0.3469 -0.6436  0.5426
  636SOL    HW1 2542   4.573   3.932   3.519  0.0998 -2.2772 -0.5356
  636SOL    HW2 2543   4.598   3.898   3.664 -0.9911  1.1833  0.5772
  636SOL     MW 2544   4.628   3.914   3.584 -0.3722 -0.6188  0.4090
  637SOL     OW 2545   0.106   4.277   3.442 -0.1198 -0.1214 -0.1179
  637SOL    HW1 2546   0.198   4.298   3.459 -0.3845 -0.1625  1.5097
  637SOL    HW2 2547   0.095   4.188   3.477 -0.1073 -1.3040 -2.8826
  637SOL     MW 2548   0.116   4.268   3.449 -0.1521 -0.2781 -0.2635
  638SOL     OW 2549   2.488   1.646   4.475  0.4856  0.1358  0.6133
  638SOL    HW1 2550   2.447   1.560   4.487  0.3324  0.4140  2.3420
  638SOL    HW2 2551   2.480   1.664   4.381  0.4122 -1.6723  0.2407
  638SOL     MW 2552   2.482   1.637   4.464  0.4566 -0.0600  0.7869
  639SOL     OW 2553   3.577   5.301   0.572  0.7783  0.5954 -0.5671
  639SOL    HW1 2554   3.524   5.325   0.495 -0.9507 -0.7886  0.1090
  639SOL    HW2 2555   3.558   5.369   0.636  0.5312  0.6071 -0.6494
  639SOL     MW 2556   3.568   5.313   0.570  0.5253  0.4197 -0.4911
  640SOL     OW 2557   1.198   1.279   2.839  0.0888  0.0517 -0.8787
  640SOL    HW1 2558   1.262   1.312   2.902 -0.2212 -0.7664 -0.1070
  640SOL    HW2 2559   1.140   1.223   2.892 -0.4408 -0.2973 -1.8158
  640SOL     MW 2560   1.198   1.276   2.854 -0.0187 -0.0977 -0.8998
  641SOL     OW 2561   2.212   1.337   0.609  0.0190  0.6080 -0.2377
  641SOL    HW1 2562   2.179   1.258   0.567  0.7411  0.5594 -0.7361
  641SOL    HW2 2563   2.201   1.406   0.543  2.3090  0.2926 -1.0471
  641SOL     MW 2564   2.206   1.336   0.595  0.4046  0.5614 -0.4051
  642SOL     OW 2565   3.156   0.505   1.774 -0.4984 -0.0613  0.7411
  642SOL    HW1 2566   3.234   0.543   1.734 -0.8234 -0.7421 -0.5980
  642SOL    HW2 2567   3.170   0.410   1.767 -0.8316 -0.2030  1.7639
  642SOL     MW 2568   3.168   0.497   1.768 -0.5827 -0.1666  0.7006
  643SOL     OW 2569   0.759   1.257   0.929  0.2840 -0.0932 -0.2928
  643SOL    HW1 2570   0.796   1.286   0.845 -0.3634  2.0971  0.1165
  643SOL    HW2 2571   0.821   1.289   0.994 -0.4951  0.4245  0.2004
  643SOL     MW 2572   0.772   1.265   0.927  0.1014  0.2535 -0.1773
  644SOL     OW 2573   4.083   5.105   1.539 -0.2590  0.8664 -0.5496
  644SOL    HW1 2574   4.078   5.045   1.464 -0.1886  0.7718 -0.4787
  644SOL    HW2 2575   4.146   5.064   1.598 -0.0384  1.1215 -0.6048
  644SOL     MW 2576   4.091   5.092   1.537 -0.2217  0.8870 -0.5476
  645SOL     OW 2577   0.598   0.916   0.861  0.1991  0.4701  0.5741
  645SOL    HW1 2578   0.504   0.930   0.871 -0.0536 -1.0342  0.4539
  645SOL    HW2 2579   0.622   0.970   0.786 -0.5874  0.7331  0.5018
  645SOL     MW 2580   0.589   0.925   0.853  0.0661  0.3112  0.5495
  646SOL     OW 2581   4.632   0.250   5.204 -0.7921 -0.7904 -0.1828
  646SOL    HW1 2582   4.596   0.197   5.133  2.1604 -1.4610 -1.3220
  646SOL    HW2 2583   4.579   0.227   5.280 -2.7698 -1.5748 -1.6888
  646SOL     MW 2584   4.621   0.240   5.204 -0.6673 -0.9766 -0.5215
  647SOL     OW 2585   1.423   1.625   2.657  0.1705  0.1259 -0.0704
  647SOL    HW1 2586   1.466   1.679   2.724 -1.0108  0.1244  0.7079
  647SOL    HW2 2587   1.440   1.535   2.684 -2.1444  0.0860  1.5234
  647SOL     MW 2588   1.431   1.620   2.669 -0.2771  0.1206  0.2333
  648SOL     OW 2589   3.293   2.015   1.795  0.6752  0.3777 -0.7157
  648SOL    HW1 2590   3.327   1.928   1.813  0.6716  0.4310 -0.4501
  648SOL    HW2 2591   3.365   2.074   1.815 -0.4423  0.7627  2.8943
  648SOL     MW 2592   3.306   2.012   1.799  0.5317  0.4338 -0.2196
  649SOL     OW 2593   4.662   4.372   2.045 -0.2499 -0.2076 -0.2118
  649SOL    HW1 2594   4.731   4.313   2.015 -0.6946  0.8707 -3.8474
  649SOL    HW2 2595   4.707   4.435   2.100  1.0311 -1.3531  0.1211
  649SOL     MW 2596   4.676   4.372   2.048 -0.1429 -0.2162 -0.6346
  650SOL     OW 2597   1.558   3.731   1.853  0.2619 -0.3769 -0.3924
  650SOL    HW1 2598   1.582   3.801   1.792  2.1410  0.3863  1.1269
  650SOL    HW2 2599   1.492   3.771   1.911  0.5370 -0.2013 -0.1988
  650SOL     MW 2600   1.553   3.745   1.853  0.5376 -0.2567 -0.1732
  651SOL     OW 2601   4.460   1.106   2.474  0.4257 -0.1807 -0.5552
  651SOL    HW1 2602   4.473   1.179   2.414  0.1461 -0.0407 -0.4466
  651SOL    HW2 2603   4.427   1.146   2.554  0.1978 -0.4318 -0.5208
  651SOL     MW 2604   4.457   1.120   2.477  0.3607 -0.1949 -0.5369
  652SOL     OW 2605   0.986   0.543   3.423 -0.2414 -0.1997 -0.7076
  652SOL    HW1 2606   1.055   0.607   3.405 -1.1985  1.1477  0.2340
  652SOL    HW2 2607   0.908   0.579   3.382 -0.8815 -0.5756  0.1511
  652SOL     MW 2608   0.985   0.556   3.416 -0.4459 -0.0753 -0.4771
  653SOL     OW 2609   2.848   0.404   1.081  0.0976 -0.0556  0.7080
  653SOL    HW1 2610   2.790   0.479   1.064  0.9318  0.6382  0.8640
  653SOL    HW2 2611   2.874   0.374   0.994  0.1459  0.1422  0.6533
  653SOL     MW 2612   2.844   0.410   1.068  0.2106  0.0586  0.7210
  654SOL     OW 2613   3.802   2.649   1.426 -0.0700 -0.2935 -0.1665
  654SOL    HW1 2614   3.753   2.572   1.397  1.6260 -1.1831 -0.8352
  654SOL    HW2 2615   3.736   2.710   1.458 -1.7195 -0.8510 -2.3235
  654SOL     MW 2616   3.788   2.647   1.427 -0.0640 -0.4788 -0.5282
  655SOL     OW 2617   3.818   3.995   5.281  0.2429 -0.5396 -0.4770
  655SOL    HW1 2618   3.798   3.904   5.300  1.7305 -0.4492  1.8918
  655SOL    HW2 2619   3.761   4.045   5.340  1.2788 -0.0559  0.1526
  655SOL     MW 2620   3.808   3.990   5.291  0.5660 -0.4661 -0.0932
  656SOL     OW 2621   5.192   0.942   4.494 -0.4880  0.3861  0.4676
  656SOL    HW1 2622   5.108   0.916   4.532 -0.3833 -0.9071 -0.1471
  656SOL    HW2 2623   5.185   0.920   4.401  0.7248 -0.2389  0.5081
  656SOL     MW 2624   5.181   0.936   4.487 -0.3193  0.1405  0.3941
  657SOL     OW 2625   1.037   3.472   0.702  0.2263  0.1484  0.3319
  657SOL    HW1 2626   0.978   3.398   0.688  0.1798  0.1523  0.5045
  657SOL    HW2 2627   1.081   3.453   0.784 -0.1359  0.5386  0.6245
  657SOL     MW 2628   1.035   3.460   0.710  0.1740  0.1988  0.3914
  658SOL     OW 2629   0.925   1.402   2.662  0.0750  0.1452  0.5712
  658SOL    HW1 2630   1.009   1.440   2.689  0.0665 -0.4458  1.4927
  658SOL    HW2 2631   0.863   1.430   2.730 -0.2495 -0.2675  0.4500
  658SOL     MW 2632   0.928   1.410   2.674  0.0324  0.0167  0.6737
  659SOL     OW 2633   2.363   2.074   1.415  0.0891  0.7940 -0.4811
  659SOL    HW1 2634   2.367   2.169   1.423 -0.0080  0.6981  1.1582
  659SOL    HW2 2635   2.300   2.058   1.344 -3.6865  1.9968  2.2661
  659SOL     MW 2636   2.355   2.084   1.407 -0.4066  0.9357  0.0805
  660SOL     OW 2637   0.200   2.051   3.865  0.7349 -0.4099  0.1085
  660SOL    HW1 2638   0.178   2.003   3.944 -0.7901 -0.8673 -0.5565
  660SOL    HW2 2639   0.222   1.984   3.801 -1.1444 -0.2692 -0.7448
  660SOL     MW 2640   0.200   2.037   3.867  0.2991 -0.4505 -0.0859
  661SOL     OW 2641   2.110   0.708   1.661  0.1005 -0.0356 -0.0871
  661SOL    HW1 2642   2.076   0.674   1.579  0.7858  0.0451 -0.4088
  661SOL    HW2 2643   2.111   0.632   1.720 -1.4434  0.1460  0.2030
  661SOL     MW 2644   2.106   0.693   1.658 -0.0094 -0.0020 -0.0911
  662SOL     OW 2645   3.286   2.293   0.808  0.1713  0.1503 -0.0797
  662SOL    HW1 2646   3.335   2.274   0.728  1.8937  2.6925  0.2365
  662SOL    HW2 2647   3.334   2.246   0.876 -0.1284 -0.4442 -0.2749
  662SOL     MW 2648   3.299   2.284   0.806  0.3534  0.3996 -0.0642
  663SOL     OW 2649   4.999   5.317   2.399 -0.2681  0.0971 -0.4460
  663SOL    HW1 2650   5.090   5.335   2.374 -0.5587 -0.9331 -2.4836
  663SOL    HW2 2651   4.991   5.222   2.392 -1.0643  0.0024  1.4128
  663SOL     MW 2652   5.010   5.308   2.395 -0.4072 -0.0469 -0.4689
  664SOL     OW 2653   5.147   3.186   4.585  0.1381  0.2130  0.0413
  664SOL    HW1 2654   5.205   3.225   4.520 -1.7965  1.2849 -1.1470
  664SOL    HW2 2655   5.201   3.122   4.631  2.0903  0.8124 -1.3172
  664SOL     MW 2656   5.161   3.182   4.583  0.1403  0.4269 -0.2847
  665SOL     OW 2657   0.019   1.800   0.520 -0.2790 -0.0666  0.1564
  665SOL    HW1 2658   0.049   1.721   0.475  0.0813  0.7067 -0.9998
  665SOL    HW2 2659   0.086   1.866   0.501 -1.7804  1.2147 -1.0371
  665SOL     MW 2660   0.031   1.798   0.512 -0.4251  0.1964 -0.1444
  666SOL     OW 2661   4.895   5.253   3.005  0.3304 -0.1882  0.4197
  666SOL    HW1 2662   4.989   5.242   3.019  0.1610  0.2803  2.1471
  666SOL    HW2 2663   4.858   5.166   3.021  0.2306  0.1659  2.3229
  666SOL     MW 2664   4.902   5.241   3.009  0.2959 -0.0829  0.8844
  667SOL     OW 2665   0.807   3.144   1.221 -0.4606 -0.1102 -0.2256
  667SOL    HW1 2666   0.876   3.181   1.166 -0.9090 -0.4601 -1.0407
  667SOL    HW2 2667   0.769   3.219   1.266 -0.9132  0.3668 -1.3461
  667SOL     MW 2668   0.811   3.158   1.220 -0.5759 -0.0939 -0.4734
  668SOL     OW 2669   3.418   3.453   4.470  0.4389 -0.2630 -0.0510
  668SOL    HW1 2670   3.377   3.404   4.542  0.6345 -0.9215 -0.3790
  668SOL    HW2 2671   3.386   3.543   4.481  0.6883 -0.2930  1.0209
  668SOL     MW 2672   3.409   3.458   4.481  0.4958 -0.3511  0.0442
  669SOL     OW 2673   1.327  -0.005   4.530  0.3683 -0.4235 -0.5245
  669SOL    HW1 2674   1.374  -0.030   4.451  2.0093  3.4123 -0.9889
  669SOL    HW2 2675   1.251   0.044   4.499  0.5167  0.3127  0.2373
  669SOL     MW 2676   1.323  -0.002   4.516  0.5973  0.1618 -0.4864
  670SOL     OW 2677   1.184   4.527   3.095  0.6666 -0.1776 -0.2275
  670SOL    HW1 2678   1.112   4.518   3.033  0.0310 -0.0707  0.4900
  670SOL    HW2 2679   1.205   4.437   3.121  1.6492 -0.3155 -1.3775
  670SOL     MW 2680   1.178   4.514   3.090  0.7111 -0.1815 -0.2829
  671SOL     OW 2681   1.578   4.346   4.604  0.0850  0.0500  0.0710
  671SOL    HW1 2682   1.543   4.415   4.660  0.4400  0.9734 -0.8196
  671SOL    HW2 2683   1.650   4.387   4.557 -0.4655 -0.5728 -1.3691
  671SOL     MW 2684   1.582   4.360   4.605  0.0600  0.0885 -0.2274
  672SOL     OW 2685   3.880   1.400   0.816 -0.1086 -0.4254 -0.1351
  672SOL    HW1 2686   3.815   1.401   0.886 -0.3360  0.3484 -0.3373
  672SOL    HW2 2687   3.933   1.322   0.832  0.9617  0.6192  1.9323
  672SOL     MW 2688   3.879   1.390   0.827 -0.0007 -0.1926  0.1037
  673SOL     OW 2689   5.417   4.876   4.709 -0.1624  0.1291 -0.0881
  673SOL    HW1 2690   5.332   4.921   4.712  0.6604  1.7143  1.4232
  673SOL    HW2 2691   5.397   4.785   4.729 -1.6117  0.2579 -0.7870
  673SOL     MW 2692   5.403   4.870   4.712 -0.2426  0.3485  0.0159
  674SOL     OW 2693   3.150   1.196   1.862 -0.2298  0.0613  0.3856
  674SOL    HW1 2694   3.200   1.123   1.828 -0.7475  0.0508 -0.3793
  674SOL    HW2 2695   3.128   1.248   1.785 -1.6792 -0.1208  0.6420
  674SOL     MW 2696   3.153   1.193   1.848 -0.4816  0.0367  0.3205
  675SOL     OW 2697   5.048   3.522   5.327  0.4698  0.0880 -0.4828
  675SOL    HW1 2698   5.003   3.548   5.246  0.1798  0.8115 -0.1013
  675SOL    HW2 2699   4.986   3.544   5.397  0.4870 -1.0523 -0.0892
  675SOL     MW 2700   5.034   3.528   5.326  0.4349  0.0346 -0.3836
  676SOL     OW 2701   5.232   0.821   1.701  0.2263 -0.4389  0.1162
  676SOL    HW1 2702   5.176   0.851   1.630  0.4845 -0.2826 -0.0236
  676SOL    HW2 2703   5.298   0.890   1.711  0.6440 -0.8108 -0.0070
  676SOL     MW 2704   5.234   0.833   1.693  0.3128 -0.4665  0.0825
  677SOL     OW 2705   2.984   1.118   0.317 -0.0998 -0.2952 -0.1831
  677SOL    HW1 2706   3.056   1.111   0.380 -0.7907  1.2612  0.8375
  677SOL    HW2 2707   3.025   1.096   0.233  1.3023 -0.5378  0.5233
  677SOL     MW 2708   2.999   1.114   0.314 -0.0087 -0.1270  0.0380
  678SOL     OW 2709   4.137   4.608   5.414  0.3699  0.1106  0.0125
  678SOL    HW1 2710   4.162   4.673   5.480  2.8436 -1.2443  0.5485
  678SOL    HW2 2711   4.097   4.659   5.344 -1.4549  1.7164  2.0798
  678SOL     MW 2712   4.135   4.623   5.414  0.4529  0.1428  0.3458
  679SOL     OW 2713   0.112   5.083   2.312 -0.5570  0.0105  0.3908
  679SOL    HW1 2714   0.132   5.028   2.236 -0.1104  0.4010  0.2202
  679SOL    HW2 2715   0.034   5.043   2.350  0.4632 -1.4988  0.9981
  679SOL     MW 2716   0.105   5.070   2.307 -0.3692 -0.1327  0.4467
  680SOL     OW 2717   4.064   4.821   2.512  0.1243 -0.3331  0.4142
  680SOL    HW1 2718   4.020   4.891   2.559  0.4181  0.8280 -0.9829
  680SOL    HW2 2719   4.018   4.815   2.428  0.8648 -1.0038  0.0420
  680SOL     MW 2720   4.052   4.829   2.507  0.2567 -0.2703  0.1877
  681SOL     OW 2721   1.850   1.332   1.868 -0.1352  0.4366 -0.0596
  681SOL    HW1 2722   1.910   1.370   1.931  2.4922 -0.9538 -1.5628
  681SOL    HW2 2723   1.863   1.238   1.876 -0.1277  0.1955 -2.2214
  681SOL     MW 2724   1.859   1.325   1.877  0.2021  0.2277 -0.5288
  682SOL     OW 2725   4.826   4.905   1.754  0.0867 -0.2172 -0.4315
  682SOL    HW1 2726   4.889   4.833   1.751 -0.5121 -0.7762  0.0501
  682SOL    HW2 2727   4.754   4.871   1.807 -0.6521  0.3814 -1.0281
  682SOL     MW 2728   4.825   4.891   1.760 -0.0845 -0.2121 -0.4462
  683SOL     OW 2729   1.969   2.540   1.072  0.5238  0.9477  0.2863
  683SOL    HW1 2730   1.970   2.598   1.148  1.2809  0.3513  0.7542
  683SOL    HW2 2731   1.889   2.563   1.025 -0.6094  0.5387  1.8864
  683SOL     MW 2732   1.959   2.550   1.076  0.4757  0.8190  0.5511
  684SOL     OW 2733   3.259   1.050   3.274  0.0051  0.0877  0.1956
  684SOL    HW1 2734   3.345   1.014   3.298 -0.8466 -1.6668  0.8126
  684SOL    HW2 2735   3.200   1.018   3.343 -1.6412 -1.0902 -1.6522
  684SOL     MW 2736   3.263   1.041   3.286 -0.3146 -0.2877  0.0380
  685SOL     OW 2737   3.905   2.864   1.761  0.1957 -0.0054  0.1827
  685SOL    HW1 2738   3.883   2.771   1.752  1.1122 -0.2939  0.7700
  685SOL    HW2 2739   3.954   2.884   1.681  0.0531 -0.0469  0.0843
  685SOL     MW 2740   3.909   2.854   1.749  0.2947 -0.0477  0.2453
  686SOL     OW 2741   0.454   5.295   1.960 -0.1100 -0.3200  0.0453
  686SOL    HW1 2742   0.475   5.316   2.051 -0.9830  2.1137 -0.2292
  686SOL    HW2 2743   0.358   5.299   1.956 -0.2276 -2.5222 -0.5747
  686SOL     MW 2744   0.444   5.298   1.971 -0.2368 -0.2904 -0.0692
  687SOL     OW 2745   3.774   1.911   1.167  0.5008  0.2253 -0.5035
  687SOL    HW1 2746   3.777   1.993   1.217 -0.2123  0.2412 -0.4659
  687SOL    HW2 2747   3.865   1.882   1.162  0.6368  0.4550  0.4266
  687SOL     MW 2748   3.786   1.918   1.173  0.4269  0.2568 -0.3796
  688SOL     OW 2749   3.019   4.208   4.373  0.2673 -0.1124 -0.0520
  688SOL    HW1 2750   3.005   4.302   4.374  0.0279 -0.1362 -0.8941
  688SOL    HW2 2751   3.114   4.197   4.369  0.3305  0.0766  0.6784
  688SOL     MW 2752   3.029   4.218   4.373  0.2447 -0.0913 -0.0663
  689SOL     OW 2753   4.641   2.268   2.750  0.3723  0.8764 -0.2209
  689SOL    HW1 2754   4.629   2.330   2.678  0.3358 -0.4503 -1.3960
  689SOL    HW2 2755   4.635   2.322   2.829  0.1851  2.3361 -1.1879
  689SOL     MW 2756   4.639   2.283   2.751  0.3437  0.8934 -0.4951
  690SOL     OW 2757   4.404   5.279   2.859  0.3052 -0.2892 -0.9773
  690SOL    HW1 2758   4.421   5.187   2.840 -0.6231 -0.0762 -3.1149
  690SOL    HW2 2759   4.452   5.296   2.940 -0.1267 -2.8235 -0.1198
  690SOL     MW 2760   4.413   5.269   2.867  0.1310 -0.5863 -1.1412
  691SOL     OW 2761   0.284   5.425   4.197 -0.0620  0.1379 -0.0678
  691SOL    HW1 2762   0.201   5.451   4.240  0.1188  1.8577 -0.6643
  691SOL    HW2 2763   0.257   5.365   4.128 -1.0683  1.9035 -1.3129
  691SOL     MW 2764   0.270   5.421   4.194 -0.1677  0.5840 -0.3035
  692SOL     OW 2765   3.800   5.134   3.052 -0.0394 -0.1163  0.0194
  692SOL    HW1 2766   3.882   5.118   3.098  0.0328  1.9807  0.7421
  692SOL    HW2 2767   3.742   5.063   3.080  1.6557 -2.0276 -1.0121
  692SOL     MW 2768   3.803   5.123   3.062  0.1868 -0.0925 -0.0201
  693SOL     OW 2769   4.309   3.378   3.871  0.0740 -0.5284 -0.2896
  693SOL    HW1 2770   4.223   3.363   3.910  1.6597 -1.7175  3.0564
  693SOL    HW2 2771   4.357   3.428   3.936  2.0832 -0.1938 -1.9115
  693SOL     MW 2772   4.304   3.383   3.884  0.5342 -0.6378 -0.0689
  694SOL     OW 2773   1.029   1.739   0.951 -0.4792 -0.1362 -0.3282
  694SOL    HW1 2774   0.989   1.707   0.870 -0.6380  0.7451 -0.6114
  694SOL    HW2 2775   0.976   1.701   1.021 -0.1146 -1.2051 -0.6161
  694SOL     MW 2776   1.017   1.730   0.950 -0.4528 -0.1602 -0.4013
  695SOL     OW 2777   4.672  -0.002   0.314  1.1043 -0.7266 -0.6771
  695SOL    HW1 2778   4.731   0.014   0.387  1.6741  1.3587 -1.5109
  695SOL    HW2 2779   4.690   0.069   0.253 -1.6182 -0.5356 -1.3882
  695SOL     MW 2780   4.682   0.009   0.315  0.8288 -0.4352 -0.8748
  696SOL     OW 2781   0.047   1.731   1.533 -0.2098 -0.2573  0.1202
  696SOL    HW1 2782   0.124   1.758   1.583  0.4967  0.2938 -1.2146
  696SOL    HW2 2783  -0.026   1.745   1.592  0.5294  1.0256  0.7822
  696SOL     MW 2784   0.048   1.736   1.547 -0.0247 -0.0225  0.0341
  697SOL     OW 2785   5.222   4.703   0.948  0.0945  0.9234 -0.2678
  697SOL    HW1 2786   5.230   4.777   1.009  0.3687  2.9075 -2.5577
  697SOL    HW2 2787   5.274   4.729   0.872 -1.3094 -0.8296 -1.9177
  697SOL     MW 2788   5.230   4.716   0.946 -0.0501  0.9530 -0.7721
  698SOL     OW 2789   3.373   4.745   2.866  0.3298  0.0234 -0.2175
  698SOL    HW1 2790   3.298   4.703   2.909  1.6914 -1.7704  0.5165
  698SOL    HW2 2791   3.363   4.723   2.773  0.2934 -0.7889 -0.0263
  698SOL     MW 2792   3.362   4.737   2.859  0.4995 -0.3102 -0.0990
  699SOL     OW 2793   3.489   1.844   5.282 -0.0282  0.3354 -0.5424
  699SOL    HW1 2794   3.441   1.850   5.199 -1.8387  1.5901  0.5071
  699SOL    HW2 2795   3.456   1.763   5.322  0.7049 -0.1709 -0.9484
  699SOL     MW 2796   3.478   1.834   5.277 -0.1661  0.4312 -0.4600
  700SOL     OW 2797   2.922   3.293   1.878  0.1418 -0.1651 -0.6150
  700SOL    HW1 2798   2.943   3.374   1.832  1.2388 -0.3704 -0.4906
  700SOL    HW2 2799   2.901   3.231   1.809 -0.2562  0.0898 -0.7295
  700SOL     MW 2800   2.922   3.296   1.863  0.2312 -0.1588 -0.6137
  701SOL     OW 2801   4.285   3.063   1.816  0.0483 -0.1115  0.0854
  701SOL    HW1 2802   4.290   2.969   1.800  1.5768 -0.3076  1.4667
  701SOL    HW2 2803   4.375   3.089   1.834 -0.3741  1.6041 -0.1143
  701SOL     MW 2804   4.297   3.054   1.816  0.1899  0.0831  0.2367
  702SOL     OW 2805   5.082   1.118   1.832  0.1241 -0.3028  0.5746
  702SOL    HW1 2806   5.068   1.099   1.924 -2.2575  0.9630  0.5400
  702SOL    HW2 2807   5.011   1.073   1.787  0.2770  0.4504 -0.4638
  702SOL     MW 2808   5.072   1.110   1.838 -0.1612 -0.0444  0.4372
  703SOL     OW 2809   2.287   2.417   0.470  0.1165  0.3048 -0.0784
  703SOL    HW1 2810   2.353   2.462   0.418  1.3394  1.2861  2.1789
  703SOL    HW2 2811   2.336   2.354   0.522 -0.5029  1.5819  2.2182
  703SOL     MW 2812   2.302   2.415   0.470  0.1937  0.5939  0.5046
  704SOL     OW 2813   2.104   1.070   2.161 -0.3458 -0.0917  0.1269
  704SOL    HW1 2814   2.065   1.077   2.248 -1.2953 -1.6796 -0.1209
  704SOL    HW2 2815   2.159   1.148   2.152 -1.3957  0.8553  1.5535
  704SOL     MW 2816   2.106   1.080   2.171 -0.6018 -0.1737  0.2778
  705SOL     OW 2817   1.658   3.275   3.036 -0.2931  0.4605 -0.2206
  705SOL    HW1 2818   1.582   3.311   3.082 -1.4692 -0.6520 -1.2326
  705SOL    HW2 2819   1.689   3.347   2.981 -0.6259  0.9070  0.1664
  705SOL     MW 2820   1.652   3.289   3.035 -0.4863  0.3752 -0.3006
  706SOL     OW 2821   0.404   0.561   1.013  0.3513  0.4561 -0.0253
  706SOL    HW1 2822   0.488   0.584   0.973 -0.6087  0.7047 -2.0186
  706SOL    HW2 2823   0.427   0.522   1.097  2.5071 -0.2813 -0.8964
  706SOL     MW 2824   0.418   0.559   1.019  0.5044  0.3935 -0.3920
  707SOL     OW 2825   5.023   0.899   1.441 -0.1919  0.1654  0.2267
  707SOL    HW1 2826   4.982   0.814   1.453 -0.9856  0.2200 -1.6717
  707SOL    HW2 2827   5.096   0.883   1.381 -0.1551  0.7617  0.1015
  707SOL     MW 2828   5.027   0.886   1.435 -0.2888  0.2488 -0.0324
  708SOL     OW 2829   2.157   3.631   1.667  0.2496  0.1014  0.6435
  708SOL    HW1 2830   2.083   3.582   1.704 -0.7693  0.3967 -0.8919
  708SOL    HW2 2831   2.189   3.685   1.739 -2.0792  1.1781  0.9648
  708SOL     MW 2832   2.151   3.632   1.681 -0.1790  0.2770  0.4881
  709SOL     OW 2833   0.233   3.661   4.051  0.5393 -0.1006  0.0895
  709SOL    HW1 2834   0.231   3.739   4.106 -0.6272  0.0685 -0.1689
  709SOL    HW2 2835   0.259   3.693   3.965 -3.3518  0.6966 -0.9713
  709SOL     MW 2836   0.236   3.675   4.047 -0.1082  0.0231 -0.0793
  710SOL     OW 2837   2.148   4.630   3.860  0.4814 -0.0110 -0.4259
  710SOL    HW1 2838   2.110   4.712   3.890  1.6292  0.4088 -0.0582
  710SOL    HW2 2839   2.230   4.656   3.818  0.8432 -0.9618 -0.3266
  710SOL     MW 2840   2.153   4.644   3.859  0.6747 -0.0789 -0.3661
  711SOL     OW 2841   4.166   1.751   0.283 -0.2522  0.0420 -0.1613
  711SOL    HW1 2842   4.235   1.803   0.324  0.3461 -0.6410 -0.2909
  711SOL    HW2 2843   4.139   1.803   0.208  0.7374 -0.0882 -0.6202
  711SOL     MW 2844   4.171   1.764   0.279 -0.0489 -0.0621 -0.2367
  712SOL     OW 2845   5.452   4.924   4.432  0.2910 -0.1531 -0.5022
  712SOL    HW1 2846   5.392   4.987   4.392 -0.1034 -0.9727 -1.2404
  712SOL    HW2 2847   5.434   4.930   4.526  0.3955  0.9606 -0.5426
  712SOL     MW 2848   5.442   4.933   4.439  0.2539 -0.1154 -0.6019
  713SOL     OW 2849   2.903   0.910   5.006  0.7012 -0.3652  0.1575
  713SOL    HW1 2850   2.957   0.939   4.932 -0.1466 -0.4386 -0.5007
  713SOL    HW2 2851   2.963   0.860   5.062  1.2927 -0.5011 -0.5939
  713SOL     MW 2852   2.918   0.907   5.004  0.6684 -0.3920 -0.0230
  714SOL     OW 2853   1.515   5.429   0.726 -0.2021 -0.7027 -0.6172
  714SOL    HW1 2854   1.461   5.381   0.790 -0.0334 -1.4840 -1.0396
  714SOL    HW2 2855   1.458   5.439   0.650 -0.0968 -0.5983 -0.6819
  714SOL     MW 2856   1.500   5.424   0.725 -0.1671 -0.7894 -0.6796
  715SOL     OW 2857   4.006   0.546   5.012  0.2818  0.4099  0.5154
  715SOL    HW1 2858   3.930   0.584   4.968 -0.5651 -1.5303  0.1778
  715SOL    HW2 2859   4.012   0.457   4.976  2.5571  0.4225  0.7517
  715SOL     MW 2860   3.997   0.539   5.002  0.4646  0.1631  0.5024
  716SOL     OW 2861   2.988   1.588   0.941  0.6687 -0.3449  0.2061
  716SOL    HW1 2862   3.072   1.605   0.982  0.7788 -1.0968  0.3094
  716SOL    HW2 2863   2.926   1.644   0.988  1.5307  2.4620 -1.7803
  716SOL     MW 2864   2.991   1.597   0.953  0.7932 -0.0818 -0.0349
  717SOL     OW 2865   4.462   0.148   0.756  0.0511 -0.2942  0.2211
  717SOL    HW1 2866   4.480   0.142   0.850 -0.8088 -0.2092  0.4018
  717SOL    HW2 2867   4.389   0.209   0.749  1.1696  1.0144 -0.6595
  717SOL     MW 2868   4.455   0.155   0.767  0.0842 -0.1158  0.1315
  718SOL     OW 2869   2.567   2.049   3.024 -0.2860 -0.1254  0.1121
  718SOL    HW1 2870   2.653   2.029   3.062  1.0291  2.2457 -1.3114
  718SOL    HW2 2871   2.541   2.131   3.067 -1.2907 -0.2333 -0.2670
  718SOL     MW 2872   2.575   2.057   3.034 -0.2463  0.1643 -0.1186
  719SOL     OW 2873   1.804   0.133   1.105 -0.5600  0.1756 -0.2393
  719SOL    HW1 2874   1.717   0.094   1.095 -1.2021  1.6274 -0.5851
  719SOL    HW2 2875   1.802   0.210   1.048  0.6939  0.6401  0.3250
  719SOL     MW 2876   1.792   0.138   1.097 -0.4817  0.4209 -0.2114
  720SOL     OW 2877   2.044   1.916   1.522 -0.1360 -0.1434  0.0174
  720SOL    HW1 2878   1.982   1.910   1.595  0.9567  1.5132  1.1452
  720SOL    HW2 2879   2.110   1.979   1.551  1.6770 -1.2471 -1.4461
  720SOL     MW 2880   2.044   1.923   1.535  0.2360 -0.0726 -0.0256
  721SOL     OW 2881   1.831   3.654   4.388  0.2592  0.0476  0.2628
  721SOL    HW1 2882   1.786   3.580   4.429 -3.4470  1.3190 -1.0955
  721SOL    HW2 2883   1.857   3.710   4.461  1.2801 -1.5226  1.1758
  721SOL     MW 2884   1.829   3.652   4.403 -0.0846  0.0094  0.2058
  722SOL     OW 2885   3.998   2.765   3.477  0.1912 -0.0171 -0.2387
  722SOL    HW1 2886   3.979   2.691   3.420  0.8624 -0.5975  0.2677
  722SOL    HW2 2887   4.093   2.774   3.474  0.2358 -0.0390  0.7483
  722SOL     MW 2888   4.008   2.756   3.469  0.2828 -0.0942 -0.0476
  723SOL     OW 2889   3.333   2.277   2.318  0.3650 -0.1413 -0.2026
  723SOL    HW1 2890   3.252   2.329   2.317 -0.1467 -0.9424 -1.3556
  723SOL    HW2 2891   3.387   2.315   2.248  0.9846  0.3424  0.5131
  723SOL     MW 2892   3.330   2.289   2.309  0.3788 -0.1820 -0.2586
  724SOL     OW 2893   4.967   4.694   3.500  0.2598  0.6603 -0.2397
  724SOL    HW1 2894   4.884   4.650   3.517  0.4619  1.1668  2.4530
  724SOL    HW2 2895   4.943   4.785   3.482  0.1637  0.6041 -0.3920
  724SOL     MW 2896   4.953   4.700   3.500  0.2734  0.7180  0.0855
  725SOL     OW 2897   4.162   4.602   1.545 -0.7178 -0.2331 -0.3433
  725SOL    HW1 2898   4.216   4.626   1.469 -0.8799  0.6568 -0.1908
  725SOL    HW2 2899   4.077   4.643   1.528 -0.8227 -0.2065  0.2182
  725SOL     MW 2900   4.158   4.610   1.533 -0.7520 -0.1158 -0.2519
  726SOL     OW 2901   5.089   3.173   3.352 -0.3670 -0.4807  0.0689
  726SOL    HW1 2902   5.130   3.109   3.295  0.5586  1.5290 -1.6260
  726SOL    HW2 2903   5.012   3.203   3.304 -1.4601 -1.0910  1.3510
  726SOL     MW 2904   5.084   3.168   3.339 -0.3885 -0.3016  0.0161
  727SOL     OW 2905   1.015   2.124   1.294  0.6018 -0.2959  0.2519
  727SOL    HW1 2906   1.004   2.032   1.317  0.5907 -0.4790 -0.4695
  727SOL    HW2 2907   1.002   2.171   1.377  0.7197 -0.9451  0.6473
  727SOL     MW 2908   1.012   2.118   1.308  0.6154 -0.4024  0.2102
  728SOL     OW 2909   3.704   2.087   4.013  0.1318 -0.1704 -0.6747
  728SOL    HW1 2910   3.797   2.096   3.992  0.3212 -0.7182 -0.1048
  728SOL    HW2 2911   3.659   2.127   3.939  0.8131 -0.3055 -1.1719
  728SOL     MW 2912   3.710   2.093   4.001  0.2433 -0.2578 -0.6654
  729SOL     OW 2913   1.588   1.755   3.841 -0.3645  0.3317  0.0009
  729SOL    HW1 2914   1.638   1.674   3.835 -1.1141 -0.0644 -1.1993
  729SOL    HW2 2915   1.620   1.797   3.921  2.6156  0.5849 -1.1903
  729SOL     MW 2916   1.599   1.750   3.850 -0.0790  0.3134 -0.3053
  730SOL     OW 2917   0.394   4.859   3.252  0.3560  0.0209  0.2646
  730SOL    HW1 2918   0.329   4.846   3.184  0.9978  2.7026 -0.9924
  730SOL    HW2 2919   0.377   4.948   3.286  2.2136  0.0999  1.1407
  730SOL     MW 2920   0.384   4.869   3.248  0.6759  0.3743  0.2159
  731SOL     OW 2921   4.274   4.752   1.744 -0.1055  0.1413  0.2240
  731SOL    HW1 2922   4.256   4.727   1.835  0.2091  0.0749  0.2701
  731SOL    HW2 2923   4.204   4.712   1.693  0.6659 -1.2777  0.2306
  731SOL     MW 2924   4.263   4.744   1.749  0.0335 -0.0488  0.2308
  732SOL     OW 2925   3.989   2.177   4.972 -0.1068  0.7912 -0.3046
  732SOL    HW1 2926   3.946   2.215   4.895  1.0855  1.6480 -0.5858
  732SOL    HW2 2927   4.048   2.246   5.003  1.3923 -0.4716 -0.2370
  732SOL     MW 2928   3.991   2.191   4.966  0.2377  0.7392 -0.3319
  733SOL     OW 2929   4.863   3.380   1.659 -0.0647 -0.2840 -0.4457
  733SOL    HW1 2930   4.901   3.362   1.745 -0.7058 -0.1503 -0.1247
  733SOL    HW2 2931   4.923   3.340   1.597  0.7843  0.2303  0.0277
  733SOL     MW 2932   4.875   3.373   1.662 -0.0381 -0.2011 -0.3440
  734SOL     OW 2933   5.183   2.004   2.622  0.2022  0.2435  0.4642
  734SOL    HW1 2934   5.176   2.049   2.706  2.8421  0.6456  0.5652
  734SOL    HW2 2935   5.198   2.075   2.559  3.4265 -0.2888  0.4796
  734SOL     MW 2936   5.184   2.019   2.625  0.9529  0.2269  0.4791
  735SOL     OW 2937   0.889   5.481   0.024 -0.1114 -0.0104 -0.1278
  735SOL    HW1 2938   0.980   5.509   0.033 -0.9011  2.6102  0.3748
  735SOL    HW2 2939   0.889   5.391   0.058  2.2028  0.0257  0.1444
  735SOL     MW 2940   0.901   5.473   0.030  0.0838  0.3297 -0.0286
  736SOL     OW 2941   1.492   1.218   1.858 -0.5497  0.0624  0.9627
  736SOL    HW1 2942   1.545   1.140   1.876 -0.4146 -0.2638 -0.6795
  736SOL    HW2 2943   1.547   1.292   1.883  0.7114 -0.2663 -0.6235
  736SOL     MW 2944   1.506   1.217   1.863 -0.3710 -0.0215  0.5495
  737SOL     OW 2945   4.686   5.404   1.908  0.3433 -0.0326 -0.6396
  737SOL    HW1 2946   4.739   5.411   1.988 -1.3794 -0.3256  0.5932
  737SOL    HW2 2947   4.702   5.315   1.877  1.6417  0.3445 -1.1013
  737SOL     MW 2948   4.695   5.393   1.915  0.2890 -0.0218 -0.5409
  738SOL     OW 2949   2.546   1.749   1.658 -0.1169  0.0375  0.0157
  738SOL    HW1 2950   2.474   1.688   1.674 -0.5647  0.6945  0.6002
  738SOL    HW2 2951   2.597   1.747   1.739  1.2053 -1.2818 -0.8028
  738SOL     MW 2952   2.544   1.741   1.670 -0.0049 -0.0473 -0.0143
  739SOL     OW 2953   5.435   0.124   2.927  0.1032  0.6204 -0.1742
  739SOL    HW1 2954   5.425   0.210   2.884  3.2235  0.9066 -0.5506
  739SOL    HW2 2955   5.522   0.095   2.901 -0.0921 -1.7840  1.5924
  739SOL     MW 2956   5.445   0.132   2.918  0.4777  0.3493  0.0038
  740SOL     OW 2957   1.034   0.354   5.455 -0.5720 -0.2382  0.3086
  740SOL    HW1 2958   1.103   0.420   5.463 -0.7641  0.2069 -1.3166
  740SOL    HW2 2959   1.075   0.272   5.481  1.3273 -0.4112 -2.7806
  740SOL     MW 2960   1.048   0.352   5.460 -0.3535 -0.2033 -0.2949
  741SOL     OW 2961   1.034   5.318   0.576  0.3527 -0.1898  0.6675
  741SOL    HW1 2962   1.121   5.282   0.561 -0.9217 -3.5553  0.4946
  741SOL    HW2 2963   1.002   5.272   0.654 -1.3538  0.7895  0.5907
  741SOL     MW 2964   1.041   5.307   0.584 -0.0289 -0.4952  0.6355
  742SOL     OW 2965   3.715   1.656   1.484  0.3760  0.2503 -0.8848
  742SOL    HW1 2966   3.685   1.565   1.497  0.4798  0.2971 -0.2510
  742SOL    HW2 2967   3.701   1.673   1.391  0.3941 -0.4330 -1.0191
  742SOL     MW 2968   3.709   1.646   1.474  0.3916  0.1688 -0.8209
  743SOL     OW 2969   2.203   3.800   2.668 -0.0655  0.7656 -0.9422
  743SOL    HW1 2970   2.279   3.799   2.727 -1.3906  1.0697  0.8294
  743SOL    HW2 2971   2.222   3.870   2.606  0.8664  1.1764 -0.2158
  743SOL     MW 2972   2.215   3.809   2.667 -0.1159  0.8571 -0.6224
  744SOL     OW 2973   4.950   0.032   0.495 -0.0410  0.5594 -0.4362
  744SOL    HW1 2974   4.964  -0.007   0.581  2.3275 -0.7285 -1.2972
  744SOL    HW2 2975   4.961  -0.041   0.434 -0.5138  1.6594 -1.8890
  744SOL     MW 2976   4.953   0.018   0.498  0.2017  0.5354 -0.7324
  745SOL     OW 2977   4.771   1.974   2.372 -0.0807  0.6433  0.2105
  745SOL    HW1 2978   4.844   1.914   2.388 -0.6652 -0.1540 -0.0238
  745SOL    HW2 2979   4.812   2.055   2.341  0.6537 -0.1590 -0.9987
  745SOL     MW 2980   4.785   1.977   2.370 -0.0615  0.4385  0.0257
  746SOL     OW 2981   2.263   0.936   0.355  0.3523  0.0137 -0.2733
  746SOL    HW1 2982   2.205   0.974   0.289  1.0315  0.2457 -0.7460
  746SOL    HW2 2983   2.322   0.880   0.305 -0.4128 -1.4211  0.3688
  746SOL     MW 2984   2.263   0.933   0.340  0.3413 -0.1403 -0.2516
  747SOL     OW 2985   3.164   3.290   0.846  0.7857 -0.1377  0.3717
  747SOL    HW1 2986   3.213   3.224   0.894  0.4233  0.7461  2.0179
  747SOL    HW2 2987   3.132   3.243   0.768  1.0756 -1.7264  1.1553
  747SOL     MW 2988   3.166   3.275   0.842  0.7764 -0.2279  0.6827
  748SOL     OW 2989   1.869   5.078   3.880  0.6687 -0.0793 -0.4876
  748SOL    HW1 2990   1.848   5.160   3.926  0.2833 -0.1812 -0.4707
  748SOL    HW2 2991   1.813   5.080   3.802 -2.1014 -1.9399  1.2624
  748SOL     MW 2992   1.859   5.089   3.876  0.2647 -0.3305 -0.2614
  749SOL     OW 2993   4.480   3.358   0.976 -0.5801 -0.0968  0.2131
  749SOL    HW1 2994   4.567   3.397   0.967 -0.0021 -1.6258 -1.5694
  749SOL    HW2 2995   4.421   3.422   0.938  0.1686 -0.3015 -1.3661
  749SOL     MW 2996   4.484   3.371   0.970 -0.4102 -0.3187 -0.2173
  750SOL     OW 2997   5.389   3.554   1.864 -0.2899  0.2584 -0.6656
  750SOL    HW1 2998   5.429   3.601   1.937  0.0890  0.0150 -0.7108
  750SOL    HW2 2999   5.313   3.606   1.840  0.1933  0.9182 -0.7947
  750SOL     MW 3000   5.385   3.566   1.870 -0.1795  0.3117 -0.6879
  751SOL     OW 3001   3.627   5.197   2.685  0.0564  0.2708  0.1563
  751SOL    HW1 3002   3.606   5.104   2.688 -0.5690  0.4005 -0.1283
  751SOL    HW2 3003   3.567   5.238   2.747 -1.8611  0.8752 -1.9703
  751SOL     MW 3004   3.617   5.191   2.693 -0.2691  0.3648 -0.1524
  752SOL     OW 3005   0.170   3.558   1.091 -0.7448  0.2481  0.3838
  752SOL    HW1 3006   0.123   3.634   1.124  0.2334  0.7910  0.5522
  752SOL    HW2 3007   0.123   3.533   1.011  0.7909  3.0314 -1.5445
  752SOL     MW 3008   0.158   3.564   1.085 -0.4230  0.6739  0.1585
  753SOL     OW 3009   4.796   3.462   0.800 -0.2882 -0.2271 -0.3471
  753SOL    HW1 3010   4.730   3.441   0.733  0.6226 -1.5362 -0.8723
  753SOL    HW2 3011   4.745   3.497   0.873 -1.4067  0.3409 -1.3586
  753SOL     MW 3012   4.781   3.464   0.801 -0.3148 -0.3219 -0.5438
  754SOL     OW 3013   4.606   3.985   3.890 -0.5133  0.1059  0.0377
  754SOL    HW1 3014   4.530   4.038   3.867 -0.2864  0.2378 -0.4180
  754SOL    HW2 3015   4.681   4.042   3.873 -0.2639 -0.3877 -0.5335
  754SOL     MW 3016   4.606   3.999   3.885 -0.4523  0.0596 -0.0937
  755SOL     OW 3017   0.380   1.527   0.903 -0.4568 -0.1425  0.1001
  755SOL    HW1 3018   0.286   1.520   0.891 -0.2140  0.4336 -2.7943
  755SOL    HW2 3019   0.407   1.439   0.930 -1.5903 -0.8670 -1.0550
  755SOL     MW 3020   0.372   1.515   0.905 -0.5708 -0.1615 -0.4183
  756SOL     OW 3021   4.511   1.967   2.959  0.3846  0.2994  0.0111
  756SOL    HW1 3022   4.439   1.926   3.008  0.7559  1.5420  1.6977
  756SOL    HW2 3023   4.475   1.981   2.871  0.0414 -2.9705 -0.5172
  756SOL     MW 3024   4.497   1.963   2.954  0.3882  0.0399  0.1593
  757SOL     OW 3025   5.137   3.402   4.745 -0.5177  0.1697 -0.2375
  757SOL    HW1 3026   5.133   3.324   4.691  1.0135  0.6190 -1.0311
  757SOL    HW2 3027   5.045   3.428   4.755 -1.1803 -2.2935  0.9657
  757SOL     MW 3028   5.124   3.395   4.739 -0.4065 -0.0881 -0.1850
  758SOL     OW 3029   1.106   5.029   3.732 -0.4176 -0.3104  0.2120
  758SOL    HW1 3030   1.065   4.967   3.672  0.2906 -0.4881 -0.1076
  758SOL    HW2 3031   1.199   5.007   3.728 -0.0375  1.3281 -0.5628
  758SOL     MW 3032   1.113   5.018   3.724 -0.2783 -0.1234  0.0719
  759SOL     OW 3033   5.283   5.354   3.574 -0.3271  0.5589 -0.0821
  759SOL    HW1 3034   5.292   5.271   3.620  0.9036 -1.0557 -2.9779
  759SOL    HW2 3035   5.189   5.369   3.570 -0.5574 -0.5092  0.7359
  759SOL     MW 3036   5.272   5.345   3.580 -0.1990  0.2155 -0.3481
  760SOL     OW 3037   4.908   2.082   4.477 -0.8726  0.3123  0.0820
  760SOL    HW1 3038   4.948   1.998   4.498 -0.4025  0.6912  0.7648
  760SOL    HW2 3039   4.815   2.070   4.496 -0.7774  0.0092  0.3675
  760SOL     MW 3040   4.902   2.070   4.482 -0.8002  0.3220  0.2059
  761SOL     OW 3041   3.373   0.204   2.117  0.1544 -0.7541  0.0343
  761SOL    HW1 3042   3.280   0.216   2.098  0.4533  3.1198  0.1383
  761SOL    HW2 3043   3.417   0.252   2.047  2.0752 -1.5924  0.6031
  761SOL     MW 3044   3.367   0.212   2.105  0.4386 -0.3655  0.1205
  762SOL     OW 3045   0.109   0.399   1.977  0.0238 -0.2120 -0.8634
  762SOL    HW1 3046   0.123   0.416   2.070 -0.1853  0.5933 -0.9758
  762SOL    HW2 3047   0.064   0.477   1.945 -1.4378 -1.1846 -1.2819
  762SOL     MW 3048   0.105   0.411   1.985 -0.1901 -0.2334 -0.9314
  763SOL     OW 3049   3.345   1.281   2.057  0.1396  0.5530  0.0516
  763SOL    HW1 3050   3.325   1.375   2.059 -2.0243  0.1933 -1.6132
  763SOL    HW2 3051   3.277   1.243   2.002  2.1442 -1.7224 -1.0363
  763SOL     MW 3052   3.334   1.288   2.050  0.1192  0.2157 -0.3008
  764SOL     OW 3053   0.873   4.040   0.359 -0.0995  0.6099  0.1514
  764SOL    HW1 3054   0.938   4.022   0.426 -0.4720 -1.6659 -0.0027
  764SOL    HW2 3055   0.790   4.011   0.398 -0.2915 -0.9229 -1.2970
  764SOL     MW 3056   0.870   4.034   0.373 -0.1718  0.1224 -0.0538
  765SOL     OW 3057   1.439   1.499   5.262  0.1644  0.5349  0.0517
  765SOL    HW1 3058   1.432   1.404   5.274  1.8958  0.2441 -0.9284
  765SOL    HW2 3059   1.480   1.509   5.176 -0.9901  2.2122 -0.3402
  765SOL     MW 3060   1.443   1.488   5.252  0.2382  0.7124 -0.1239
  766SOL     OW 3061   1.366   0.626   5.183  0.0575  0.6890 -0.1276
  766SOL    HW1 3062   1.278   0.614   5.219 -0.0841  1.7917 -0.0681
  766SOL    HW2 3063   1.414   0.549   5.211 -0.5156  0.7221  1.0010
  766SOL     MW 3064   1.361   0.615   5.191 -0.0340  0.8344  0.0245
  767SOL     OW 3065   2.398   2.558   1.968 -0.2416 -0.5457 -0.1358
  767SOL    HW1 3066   2.414   2.496   2.040  0.2605 -0.3851 -0.1010
  767SOL    HW2 3067   2.355   2.632   2.010 -1.6367 -1.2234 -0.3265
  767SOL     MW 3068   2.395   2.560   1.983 -0.3559 -0.6119 -0.1557
  768SOL     OW 3069   0.658   0.363   5.027  0.3670  0.1545  0.1526
  768SOL    HW1 3070   0.633   0.320   4.945 -1.0918  2.7173 -0.8547
  768SOL    HW2 3071   0.607   0.318   5.095  0.4681 -1.0246 -0.5312
  768SOL     MW 3072   0.648   0.352   5.025  0.1932  0.3316 -0.0639
  769SOL     OW 3073   0.304   3.532   3.018  0.0977 -0.5076  0.5009
  769SOL    HW1 3074   0.280   3.578   3.099  0.2193 -2.5704  1.8036
  769SOL    HW2 3075   0.225   3.485   2.992 -0.0559  0.4453 -0.8468
  769SOL     MW 3076   0.291   3.532   3.025  0.0936 -0.6497  0.4952
  770SOL     OW 3077   1.395   4.133   3.415  0.0469 -0.7117  0.3471
  770SOL    HW1 3078   1.424   4.045   3.393 -0.4622 -1.1793  1.4651
  770SOL    HW2 3079   1.452   4.191   3.365  0.1125 -1.6756 -0.7296
  770SOL     MW 3080   1.406   4.129   3.406 -0.0099 -0.8950  0.3524
  771SOL     OW 3081   3.007   5.438   3.266  0.6170 -0.0049 -0.3880
  771SOL    HW1 3082   3.100   5.419   3.276  0.3286 -1.0839  0.4667
  771SOL    HW2 3083   2.981   5.477   3.349 -0.0913 -1.5432  0.1478
  771SOL     MW 3084   3.015   5.440   3.278  0.4894 -0.3399 -0.2100
  772SOL     OW 3085   0.394   4.461   0.182  0.3705 -0.0113 -0.6888
  772SOL    HW1 3086   0.335   4.498   0.248  0.4428 -0.0016 -0.6296
  772SOL    HW2 3087   0.481   4.473   0.219  0.5012  1.0827 -1.3192
  772SOL     MW 3088   0.397   4.467   0.195  0.3965  0.1300 -0.7619
  773SOL     OW 3089   3.438   0.280   3.624 -0.1509  0.1083  0.1871
  773SOL    HW1 3090   3.412   0.205   3.571 -0.5761  0.0210  0.5145
  773SOL    HW2 3091   3.363   0.339   3.621 -0.2336  0.0365  0.8061
  773SOL     MW 3092   3.425   0.278   3.617 -0.2159  0.0879  0.3082
  774SOL     OW 3093   2.917   3.293   3.454  0.1963 -0.0846 -0.0020
  774SOL    HW1 3094   2.890   3.323   3.367 -0.3385 -0.6702 -0.0430
  774SOL    HW2 3095   2.989   3.351   3.478 -0.7606  1.2056 -0.1143
  774SOL     MW 3096   2.922   3.304   3.446  0.0054  0.0056 -0.0216
  775SOL     OW 3097   3.533   4.460   3.889 -0.1924 -0.1249  0.6081
  775SOL    HW1 3098   3.549   4.547   3.853  0.0185 -0.0100  0.9722
  775SOL    HW2 3099   3.618   4.415   3.881 -0.1554 -0.1114  0.9248
  775SOL     MW 3100   3.546   4.465   3.883 -0.1606 -0.1085  0.6952
  776SOL     OW 3101   3.167   3.122   2.947 -0.2889 -0.1436 -0.4539
  776SOL    HW1 3102   3.253   3.161   2.937 -0.1399 -0.4252 -0.3054
  776SOL    HW2 3103   3.185   3.028   2.961 -0.6892 -0.4872 -2.0689
  776SOL     MW 3104   3.180   3.115   2.948 -0.3211 -0.2236 -0.6416
  777SOL     OW 3105   3.020   3.828   0.499  0.1415  0.6953 -0.2104
  777SOL    HW1 3106   3.094   3.778   0.534 -0.7698  1.1940  2.6925
  777SOL    HW2 3107   2.966   3.762   0.456  1.2010 -0.0303 -0.4788
  777SOL     MW 3108   3.022   3.813   0.498  0.1604  0.6663  0.1268
  778SOL     OW 3109   0.131   3.929   1.115  0.2061  0.5732  0.4507
  778SOL    HW1 3110   0.052   3.878   1.134  0.0525  1.4080  2.3373
  778SOL    HW2 3111   0.099   4.018   1.102  0.3797  0.1958 -3.6115
  778SOL     MW 3112   0.117   3.934   1.116  0.2086  0.6317  0.1722
  779SOL     OW 3113   3.335   3.311   0.488 -0.2159  0.2187  0.4611
  779SOL    HW1 3114   3.374   3.223   0.490  0.0983  0.3536  0.3511
  779SOL    HW2 3115   3.345   3.339   0.397  0.2395  0.6104  0.6271
  779SOL     MW 3116   3.341   3.303   0.477 -0.1174  0.2861  0.4683
  780SOL     OW 3117   4.322   4.117   4.952  0.3408  0.2295  0.4311
  780SOL    HW1 3118   4.357   4.097   4.865 -1.4636  0.3898 -0.3771
  780SOL    HW2 3119   4.268   4.041   4.974  1.0066  0.0576  1.5814
  780SOL     MW 3120   4.320   4.105   4.944  0.1950  0.2280  0.4749
  781SOL     OW 3121   1.435   3.844   0.399  0.1865 -0.4931  0.2384
  781SOL    HW1 3122   1.396   3.805   0.477 -0.6215  0.8491  0.5412
  781SOL    HW2 3123   1.363   3.853   0.337  0.7160 -1.0763 -0.4786
  781SOL     MW 3124   1.421   3.840   0.401  0.1508 -0.3959  0.1854
  782SOL     OW 3125   1.680   1.756   0.515 -0.1064  0.0208  0.1336
  782SOL    HW1 3126   1.770   1.781   0.498 -0.5534  0.1657 -2.5679
  782SOL    HW2 3127   1.677   1.662   0.496 -0.5724  0.0890 -0.1597
  782SOL     MW 3128   1.691   1.747   0.510 -0.2233  0.0481 -0.2498
  783SOL     OW 3129   0.081   0.996   1.442 -0.4582  0.4815  0.2944
  783SOL    HW1 3130   0.054   0.985   1.351 -0.5966  0.2340  0.3636
  783SOL    HW2 3131   0.072   1.089   1.459  3.0612  1.1928 -1.0365
  783SOL     MW 3132   0.076   1.006   1.432 -0.0254  0.5409  0.1329
  784SOL     OW 3133   2.934   3.160   2.297  0.1399  0.1948 -0.5772
  784SOL    HW1 3134   2.859   3.187   2.350 -0.1248  0.3393 -1.0191
  784SOL    HW2 3135   3.008   3.211   2.332  0.1786 -0.4344  0.2941
  784SOL     MW 3136   2.934   3.170   2.308  0.1110  0.1328 -0.5222
  785SOL     OW 3137   5.037   1.265   0.561  0.3186 -0.1576 -0.2114
  785SOL    HW1 3138   5.064   1.192   0.505 -0.2670  0.0412 -0.7695
  785SOL    HW2 3139   4.942   1.254   0.569  0.3433  0.0479  0.4261
  785SOL     MW 3140   5.028   1.254   0.555  0.2468 -0.1058 -0.2013
  786SOL     OW 3141   0.100   4.192   2.610 -0.3977 -0.5634 -0.6717
  786SOL    HW1 3142   0.042   4.143   2.552  1.4980 -2.5625 -1.0015
  786SOL    HW2 3143   0.085   4.156   2.697  1.3356 -2.1763 -0.9861
  786SOL     MW 3144   0.091   4.181   2.614  0.0669 -1.0258 -0.7542
  787SOL     OW 3145   1.891   1.933   3.439 -0.2802  0.0784 -0.1607
  787SOL    HW1 3146   1.882   1.849   3.486  2.2094 -0.4389 -0.4808
  787SOL    HW2 3147   1.954   1.982   3.491  0.4811  0.5823 -1.5208
  787SOL     MW 3148   1.898   1.928   3.452  0.1360  0.0767 -0.3758
  788SOL     OW 3149   3.087   3.007   2.710 -0.6548  0.4691  0.2175
  788SOL    HW1 3150   3.146   3.033   2.639  2.4221 -3.7858  0.7847
  788SOL    HW2 3151   3.108   3.066   2.782 -0.0180  1.5738 -0.8378
  788SOL     MW 3152   3.098   3.018   2.710 -0.1794  0.0658  0.1550
  789SOL     OW 3153   1.503   4.357   2.339 -0.4758 -0.2531 -0.6465
  789SOL    HW1 3154   1.498   4.308   2.421 -0.8306  1.4307  0.3765
  789SOL    HW2 3155   1.413   4.385   2.323 -0.2929 -0.0224 -1.2807
  789SOL     MW 3156   1.491   4.354   2.348 -0.4978 -0.0080 -0.5967
  790SOL     OW 3157   2.992   0.723   4.518  0.0288  0.0581 -0.5349
  790SOL    HW1 3158   2.975   0.812   4.489 -1.0670  0.7401  1.9207
  790SOL    HW2 3159   3.085   0.724   4.543 -0.0747  0.6585 -0.1441
  790SOL     MW 3160   3.002   0.734   4.518 -0.1248  0.2223 -0.1705
  791SOL     OW 3161   2.748   3.304   0.820 -0.5434  0.3546  0.0756
  791SOL    HW1 3162   2.654   3.301   0.837 -0.6177 -0.4749 -0.3928
  791SOL    HW2 3163   2.764   3.227   0.765  0.5688 -0.0441  0.9302
  791SOL     MW 3164   2.738   3.294   0.815 -0.4105  0.1974  0.1250
  792SOL     OW 3165   1.456   1.043   4.811  0.5199  0.3836 -0.2481
  792SOL    HW1 3166   1.382   1.009   4.861 -0.1083  1.0581 -0.7075
  792SOL    HW2 3167   1.525   1.055   4.876 -0.1305  0.7864  0.3885
  792SOL     MW 3168   1.455   1.040   4.825  0.3562  0.5215 -0.2254
  793SOL     OW 3169   4.110   0.428   0.027 -0.6745  0.4473  0.4341
  793SOL    HW1 3170   4.019   0.445   0.051 -1.7610 -1.3623 -2.0505
  793SOL    HW2 3171   4.122   0.474  -0.056  0.0788 -0.8241 -0.1917
  793SOL     MW 3172   4.100   0.436   0.020 -0.7172  0.0529  0.0359
  794SOL     OW 3173   3.017   2.873   2.077  0.3872  0.0295 -0.2987
  794SOL    HW1 3174   2.962   2.816   2.025  0.5399  0.1572 -0.6045
  794SOL    HW2 3175   2.970   2.956   2.081  0.7318  0.2650 -0.8968
  794SOL     MW 3176   3.004   2.877   2.071  0.4509  0.0760 -0.4144
  795SOL     OW 3177   1.585   4.272   3.250  0.2470  0.8088  0.1497
  795SOL    HW1 3178   1.617   4.362   3.238 -0.8468  1.2209  0.2532
  795SOL    HW2 3179   1.527   4.257   3.175  0.4228  0.1755  0.1314
  795SOL     MW 3180   1.582   4.282   3.239  0.1295  0.7805  0.1606
  796SOL     OW 3181   0.603   2.417   5.294 -0.2426  0.1626 -0.7107
  796SOL    HW1 3182   0.696   2.422   5.277 -0.0749  0.2858  0.1583
  796SOL    HW2 3183   0.561   2.420   5.208  0.5137  1.1190 -1.0557
  796SOL     MW 3184   0.609   2.418   5.281 -0.1243  0.3008 -0.6437
  797SOL     OW 3185   4.325   2.918   2.789 -0.4543 -0.4647  0.3992
  797SOL    HW1 3186   4.243   2.884   2.824 -0.6781  0.3458  0.7032
  797SOL    HW2 3187   4.330   2.883   2.700 -1.7689  0.4813 -0.0800
  797SOL     MW 3188   4.315   2.909   2.782 -0.6512 -0.2398  0.3768
  798SOL     OW 3189   3.081   5.433   2.759 -0.4252  0.3478 -0.3049
  798SOL    HW1 3190   3.044   5.404   2.842 -0.4097 -0.2415 -0.4983
  798SOL    HW2 3191   3.015   5.408   2.693  1.5128 -3.5663 -1.0559
  798SOL     MW 3192   3.068   5.426   2.761 -0.1752 -0.2287 -0.4258
  799SOL     OW 3193   4.276   2.778   3.403 -0.0551 -0.0601 -0.3141
  799SOL    HW1 3194   4.259   2.716   3.331 -2.3910  1.0443 -0.7999
  799SOL    HW2 3195   4.308   2.857   3.359 -0.3849  0.2301 -0.0355
  799SOL     MW 3196   4.278   2.780   3.388 -0.3963  0.1184 -0.3406
  800SOL     OW 3197   3.937   5.395   1.888  0.5495 -0.2492 -0.2204
  800SOL    HW1 3198   3.917   5.469   1.946  0.2095  1.1005 -1.9724
  800SOL    HW2 3199   3.957   5.323   1.948 -0.2532  0.9254  1.5683
  800SOL     MW 3200   3.937   5.395   1.903  0.4032  0.0740 -0.2157
  801SOL     OW 3201   2.489   0.194   2.594 -0.0312  0.1426 -0.3241
  801SOL    HW1 3202   2.465   0.276   2.550 -0.9181 -0.1456 -0.4143
  801SOL    HW2 3203   2.568   0.215   2.642 -0.3000  1.0866 -0.2588
  801SOL     MW 3204   2.496   0.207   2.594 -0.1792  0.2265 -0.3273
  802SOL     OW 3205   5.257   3.994   3.513  0.7334 -0.2542  0.3558
  802SOL    HW1 3206   5.302   4.065   3.559 -0.0449 -0.2800  1.1908
  802SOL    HW2 3207   5.259   3.921   3.574 -0.2634 -0.3098  0.3355
  802SOL     MW 3208   5.263   3.994   3.527  0.5061 -0.2646  0.4601
  803SOL     OW 3209   3.091   0.538   2.050 -0.6534 -0.3432 -0.7506
  803SOL    HW1 3210   3.104   0.526   1.955  0.4092 -0.1807 -0.6438
  803SOL    HW2 3211   3.003   0.573   2.058 -0.8684 -0.6402 -1.6664
  803SOL     MW 3212   3.082   0.541   2.039 -0.5449 -0.3604 -0.8541
  804SOL     OW 3213   1.366   4.986   3.617 -0.2310 -0.1275  0.2446
  804SOL    HW1 3214   1.373   5.052   3.548  0.0143  0.4538  0.8251
  804SOL    HW2 3215   1.341   4.906   3.570 -0.9850  0.4724 -0.4158
  804SOL     MW 3216   1.363   4.984   3.602 -0.2961  0.0237  0.2344
  805SOL     OW 3217   2.100   3.091   0.668  0.2275  0.3311 -0.1392
  805SOL    HW1 3218   2.095   3.162   0.605  0.2872  1.2243  0.8420
  805SOL    HW2 3219   2.114   3.012   0.615  1.1817  1.1692 -1.1723
  805SOL     MW 3220   2.101   3.090   0.654  0.3573  0.5527 -0.1458
  806SOL     OW 3221   0.502   2.037   1.959 -0.1098 -0.1771  0.3676
  806SOL    HW1 3222   0.474   2.011   2.047  0.3364  1.5192  1.0448
  806SOL    HW2 3223   0.584   2.085   1.972 -0.2957  0.5466 -0.9170
  806SOL     MW 3224   0.509   2.040   1.972 -0.0765  0.1327  0.2898
  807SOL     OW 3225   1.862   1.816   2.891 -1.0447  0.0939  0.2649
  807SOL    HW1 3226   1.868   1.885   2.957  0.2494  0.3025 -0.0300
  807SOL    HW2 3227   1.922   1.748   2.923 -0.7717 -0.0092 -0.4394
  807SOL     MW 3228   1.871   1.816   2.903 -0.8441  0.1074  0.1370
  808SOL     OW 3229   3.559   4.069   0.819  0.6985 -0.2849  0.1284
  808SOL    HW1 3230   3.624   4.130   0.784 -0.6743  0.8389 -0.5809
  808SOL    HW2 3231   3.529   4.020   0.742 -0.9386  0.8469 -0.0254
  808SOL     MW 3232   3.563   4.071   0.804  0.3132  0.0039  0.0179
  809SOL     OW 3233   5.050   4.968   3.677  0.3317  0.0869  0.1772
  809SOL    HW1 3234   5.140   4.998   3.666  0.0984  0.6348 -0.2765
  809SOL    HW2 3235   5.057   4.888   3.728  1.0670  0.2033  0.2592
  809SOL     MW 3236   5.062   4.962   3.682  0.3960  0.1719  0.1297
  810SOL     OW 3237   1.860   1.905   2.293 -0.7684  0.3569  0.5830
  810SOL    HW1 3238   1.863   1.966   2.219  0.9189 -0.1117  0.2230
  810SOL    HW2 3239   1.889   1.957   2.368  0.9497 -0.0199  0.2232
  810SOL     MW 3240   1.864   1.920   2.293 -0.3325  0.2487  0.4908
  811SOL     OW 3241   3.285   3.801   3.562  0.0201 -0.1567 -0.1876
  811SOL    HW1 3242   3.266   3.747   3.639 -2.9646 -1.2859 -1.5200
  811SOL    HW2 3243   3.258   3.889   3.587 -1.6015 -0.6420 -0.0632
  811SOL     MW 3244   3.279   3.805   3.575 -0.5696 -0.3634 -0.3422
  812SOL     OW 3245   3.551   3.290   4.794  0.1794  0.0345 -0.0217
  812SOL    HW1 3246   3.508   3.299   4.879 -2.0880  0.1907 -1.1227
  812SOL    HW2 3247   3.575   3.380   4.770 -1.0853  0.2752 -0.4538
  812SOL     MW 3248   3.549   3.303   4.802 -0.2728  0.0853 -0.2180
  813SOL     OW 3249   5.015   1.041   3.528  0.0235  0.0805 -0.1428
  813SOL    HW1 3250   5.089   1.016   3.583 -0.0176  1.1552  0.4312
  813SOL    HW2 3251   5.007   1.136   3.541 -0.7317  0.1538 -1.0892
  813SOL     MW 3252   5.023   1.050   3.537 -0.0784  0.2274 -0.1905
  814SOL     OW 3253   2.967   3.654   2.461  0.2279  0.5573 -0.2071
  814SOL    HW1 3254   2.983   3.723   2.526 -1.1524 -1.6184  2.6828
  814SOL    HW2 3255   3.043   3.597   2.468 -0.8742 -0.8332  1.2106
  814SOL     MW 3256   2.979   3.656   2.471 -0.0899  0.1008  0.3443
  815SOL     OW 3257   0.471   4.950   4.492 -0.3596 -0.9447 -0.5528
  815SOL    HW1 3258   0.413   4.922   4.421 -0.8704 -1.7436  0.1639
  815SOL    HW2 3259   0.419   4.940   4.572  0.6713 -1.4648  0.0839
  815SOL     MW 3260   0.457   4.945   4.493 -0.2930 -1.1136 -0.3795
  816SOL     OW 3261   2.611   1.113   2.471 -0.0719 -0.1349 -0.1620
  816SOL    HW1 3262   2.612   1.137   2.563  1.2604  1.3823 -0.5346
  816SOL    HW2 3263   2.673   1.041   2.464  1.5204  1.1816 -0.1850
  816SOL     MW 3264   2.619   1.107   2.482  0.3025  0.2278 -0.2126
  817SOL     OW 3265   0.508   2.432   4.068  0.1152 -0.0349 -0.2677
  817SOL    HW1 3266   0.549   2.406   4.150 -3.0885  2.3733  2.3965
  817SOL    HW2 3267   0.442   2.365   4.052 -0.4901  0.4371  0.2019
  817SOL     MW 3268   0.505   2.420   4.077 -0.3724  0.3338  0.1335
  818SOL     OW 3269   2.508   2.521   0.320  0.2403  0.0509 -0.1317
  818SOL    HW1 3270   2.577   2.465   0.286 -1.1001 -1.3524 -0.6308
  818SOL    HW2 3271   2.523   2.606   0.276  0.2765 -0.8834 -2.0423
  818SOL     MW 3272   2.519   2.525   0.310  0.0734 -0.2483 -0.4402
  819SOL     OW 3273   3.713   3.181   0.467 -0.1050  0.0633  0.1321
  819SOL    HW1 3274   3.774   3.113   0.495 -2.7468 -2.3243  0.6310
  819SOL    HW2 3275   3.690   3.228   0.548  0.6450  0.6330  0.0236
  819SOL     MW 3276   3.718   3.179   0.481 -0.3472 -0.1694  0.1821
  820SOL     OW 3277   3.937   4.834   2.252 -0.2611 -0.4085  0.6429
  820SOL    HW1 3278   3.959   4.871   2.167  1.7169  1.3339  1.8033
  820SOL    HW2 3279   3.849   4.865   2.270  0.4304  1.8271  0.4903
  820SOL     MW 3280   3.929   4.843   2.244  0.0806  0.1007  0.7719
  821SOL     OW 3281   4.117  -0.014   0.799 -0.5633  0.6134 -0.1465
  821SOL    HW1 3282   4.028  -0.031   0.830  0.3774 -1.8113  1.4960
  821SOL    HW2 3283   4.132   0.079   0.820 -2.9047  1.2814 -1.1448
  821SOL     MW 3284   4.108  -0.004   0.806 -0.7426  0.3885 -0.0640
  822SOL     OW 3285   1.156   0.381   2.691 -0.1972 -0.1720  0.5851
  822SOL    HW1 3286   1.082   0.401   2.634  0.3881 -0.5817 -0.3520
  822SOL    HW2 3287   1.184   0.293   2.665  3.0303  1.3630 -1.9084
  822SOL     MW 3288   1.150   0.372   2.680  0.2909 -0.0280  0.1460
  823SOL     OW 3289   1.243   0.049   0.920 -0.1550  0.2044  0.5289
  823SOL    HW1 3290   1.259  -0.045   0.919 -1.2797 -0.0541  2.2316
  823SOL    HW2 3291   1.244   0.073   1.013 -0.4758  1.7589  0.1647
  823SOL     MW 3292   1.245   0.040   0.932 -0.3401  0.3703  0.7002
  824SOL     OW 3293   0.318   3.282   4.209  0.5172 -0.2182 -0.4481
  824SOL    HW1 3294   0.273   3.269   4.293 -1.6788 -0.4596 -1.5944
  824SOL    HW2 3295   0.315   3.377   4.195  0.8698 -0.1795 -0.2815
  824SOL     MW 3296   0.312   3.293   4.218  0.2812 -0.2441 -0.5736
  825SOL     OW 3297   4.395   4.124   0.044 -0.5082 -0.4283 -0.2721
  825SOL    HW1 3298   4.427   4.192  -0.016 -0.4409 -0.8868 -0.7538
  825SOL    HW2 3299   4.300   4.127   0.036 -0.4950 -0.5569 -0.4754
  825SOL     MW 3300   4.387   4.133   0.035 -0.4979 -0.5034 -0.3598
  826SOL     OW 3301   1.578   4.763   1.484  0.0113  0.2888  0.0212
  826SOL    HW1 3302   1.487   4.744   1.464  0.0478 -0.2883  0.3796
  826SOL    HW2 3303   1.583   4.762   1.580  0.8650 -2.1080  0.0083
  826SOL     MW 3304   1.567   4.761   1.494  0.1252 -0.0919  0.0654
  827SOL     OW 3305   5.096   2.988   1.541  0.3875 -0.1670  0.2920
  827SOL    HW1 3306   5.188   2.992   1.568 -0.0040  3.2719  1.6073
  827SOL    HW2 3307   5.050   2.957   1.619  0.0476  2.4858  1.2297
  827SOL     MW 3308   5.102   2.984   1.555  0.2939  0.6128  0.5804
  828SOL     OW 3309   4.046   2.882   1.530  0.2960  0.3014  0.2102
  828SOL    HW1 3310   4.017   2.887   1.439  0.4000  3.4155  0.2269
  828SOL    HW2 3311   4.130   2.928   1.531  0.3802  0.1727  1.8351
  828SOL     MW 3312   4.053   2.889   1.519  0.3201  0.6835  0.4204
  829SOL     OW 3313   5.073   0.672   2.527 -0.2889  0.0023 -0.4594
  829SOL    HW1 3314   5.000   0.626   2.569  0.3356 -0.4125  0.1699
  829SOL    HW2 3315   5.038   0.760   2.510 -1.0294 -0.2738 -0.4223
  829SOL     MW 3316   5.059   0.678   2.530 -0.3037 -0.0861 -0.3741
  830SOL     OW 3317   2.028   1.748   5.047 -0.4107 -0.1033  0.4471
  830SOL    HW1 3318   1.938   1.775   5.068 -0.2097  0.0898  1.0673
  830SOL    HW2 3319   2.083   1.800   5.105  0.0356 -1.1271  0.9581
  830SOL     MW 3320   2.023   1.758   5.057 -0.3278 -0.2096  0.5919
  831SOL     OW 3321   2.353   0.415   2.449  0.4989  0.6450 -0.3516
  831SOL    HW1 3322   2.302   0.335   2.432  2.4849 -0.3623 -2.0158
  831SOL    HW2 3323   2.296   0.486   2.418  0.1519 -0.4553 -2.4401
  831SOL     MW 3324   2.339   0.414   2.443  0.7088  0.3752 -0.8320
  832SOL     OW 3325   0.116   5.195   0.633 -1.0148 -0.4653  0.7638
  832SOL    HW1 3326   0.147   5.147   0.555 -1.1083 -2.7562  2.0445
  832SOL    HW2 3327   0.065   5.268   0.597 -0.1659 -0.8143 -1.3231
  832SOL     MW 3328   0.113   5.198   0.618 -0.9181 -0.8032  0.6606
  833SOL     OW 3329   0.789   0.587   1.968  0.0417  0.1084  0.0639
  833SOL    HW1 3330   0.734   0.583   2.046 -0.7362  0.2929 -0.4668
  833SOL    HW2 3331   0.728   0.588   1.895  0.7490  0.3858 -0.5425
  833SOL     MW 3332   0.774   0.587   1.968  0.0326  0.1675 -0.0817
  834SOL     OW 3333   0.773   0.195   3.318  0.3849 -0.6061  0.3823
  834SOL    HW1 3334   0.720   0.274   3.319  1.0258 -0.1587  1.9350
  834SOL    HW2 3335   0.856   0.221   3.278  0.5565 -0.5180  0.7938
  834SOL     MW 3336   0.777   0.208   3.313  0.4889 -0.5376  0.6338
  835SOL     OW 3337   0.992   2.762   0.876 -0.7760 -0.4475 -0.6374
  835SOL    HW1 3338   0.968   2.699   0.944 -0.7279 -0.1769 -0.3655
  835SOL    HW2 3339   1.086   2.748   0.863  0.1563  2.0135  2.0828
  835SOL     MW 3340   1.001   2.752   0.883 -0.6505 -0.0978 -0.2544
  836SOL     OW 3341   1.208   3.910   4.374  0.0446 -0.0179 -0.0143
  836SOL    HW1 3342   1.178   3.981   4.430  1.4320  1.0841 -0.6046
  836SOL    HW2 3343   1.203   3.832   4.429 -0.9765  0.6183  0.8251
  836SOL     MW 3344   1.204   3.909   4.388  0.0915  0.2046  0.0176
  837SOL     OW 3345   1.371   0.780   0.079 -0.4524  0.1903  0.2945
  837SOL    HW1 3346   1.377   0.864   0.032  0.0708  0.8763  1.5547
  837SOL    HW2 3347   1.362   0.804   0.171 -1.1572 -1.1407  0.6028
  837SOL     MW 3348   1.371   0.794   0.084 -0.4757  0.1078  0.4953
  838SOL     OW 3349   1.609   1.149   0.026 -0.3285 -0.1814  0.1638
  838SOL    HW1 3350   1.667   1.081  -0.008  0.2978 -0.2893  1.3710
  838SOL    HW2 3351   1.530   1.101   0.051  0.3817 -0.6368  1.6854
  838SOL     MW 3352   1.606   1.134   0.025 -0.1574 -0.2535  0.5131
  839SOL     OW 3353   3.107   3.662   5.356  0.2316 -0.0812 -0.1192
  839SOL    HW1 3354   3.012   3.656   5.359  0.0099  1.2045 -2.1142
  839SOL    HW2 3355   3.138   3.571   5.352 -0.9508 -0.4856 -0.2863
  839SOL     MW 3356   3.099   3.650   5.356  0.0519  0.0316 -0.3960
  840SOL     OW 3357   3.171   5.037   3.838  0.2628 -0.1244 -0.2640
  840SOL    HW1 3358   3.123   5.075   3.911 -0.0105 -0.4206 -0.2857
  840SOL    HW2 3359   3.117   4.963   3.810 -1.3847  1.8873 -2.9042
  840SOL     MW 3360   3.158   5.033   3.844  0.0169  0.0952 -0.6048
  841SOL     OW 3361   2.325   0.845   3.609 -0.9665 -0.5126  0.8402
  841SOL    HW1 3362   2.404   0.833   3.661 -1.4564 -0.7316  1.5521
  841SOL    HW2 3363   2.293   0.932   3.634  0.7621  1.0082 -1.8242
  841SOL     MW 3364   2.331   0.855   3.619 -0.8079 -0.3459  0.5903
  842SOL     OW 3365   1.522   4.396   1.000 -0.0579  0.1849 -0.4918
  842SOL    HW1 3366   1.511   4.489   0.980  0.0646  0.2713 -0.1620
  842SOL    HW2 3367   1.549   4.394   1.091 -0.3143 -0.1926 -0.4226
  842SOL     MW 3368   1.524   4.407   1.009 -0.0751  0.1476 -0.4407
  843SOL     OW 3369   4.677   1.126   4.745  0.8680  0.5729  0.3934
  843SOL    HW1 3370   4.770   1.151   4.740  0.2292  3.2397  0.1287
  843SOL    HW2 3371   4.640   1.184   4.811 -0.5642 -0.7756  0.8381
  843SOL     MW 3372   4.684   1.137   4.753  0.6029  0.7417  0.4165
  844SOL     OW 3373   2.393   0.428   4.200 -0.2020 -0.2829 -0.2830
  844SOL    HW1 3374   2.398   0.334   4.221  1.1407 -0.0414  0.6633
  844SOL    HW2 3375   2.439   0.436   4.117  0.2967 -0.3919 -0.0261
  844SOL     MW 3376   2.400   0.417   4.192  0.0337 -0.2659 -0.1290
  845SOL     OW 3377   1.238   4.059   4.071 -0.1309  0.6354  0.3203
  845SOL    HW1 3378   1.159   4.049   4.017 -0.6378  0.8024  1.0172
  845SOL    HW2 3379   1.205   4.090   4.156  0.5412 -0.5732  1.0541
  845SOL     MW 3380   1.223   4.062   4.075 -0.1098  0.5021  0.5034
  846SOL     OW 3381   3.704   0.437   1.082  0.3586  0.3668  0.3721
  846SOL    HW1 3382   3.761   0.398   1.016  0.5355 -0.5811  1.0665
  846SOL    HW2 3383   3.734   0.400   1.165 -0.8043  0.3967  0.8318
  846SOL     MW 3384   3.715   0.427   1.084  0.2324  0.2493  0.5198
  847SOL     OW 3385   3.700   0.394   1.794 -0.8229 -0.2220  0.2521
  847SOL    HW1 3386   3.678   0.347   1.713 -1.4625  0.1413  0.2031
  847SOL    HW2 3387   3.773   0.450   1.770 -1.2061  0.1104 -0.1713
  847SOL     MW 3388   3.706   0.395   1.780 -0.9538 -0.1329  0.1917
  848SOL     OW 3389   4.453   5.212   3.298 -0.1767 -0.1445  0.2042
  848SOL    HW1 3390   4.359   5.198   3.306 -0.3019 -0.7136 -1.7476
  848SOL    HW2 3391   4.475   5.272   3.370 -2.3840  1.6567 -0.5138
  848SOL     MW 3392   4.444   5.218   3.308 -0.4753  0.0132 -0.1376
  849SOL     OW 3393   2.488   4.009   4.366 -0.3174  0.4037 -0.0192
  849SOL    HW1 3394   2.423   4.059   4.415 -0.2733 -0.5103  1.0306
  849SOL    HW2 3395   2.571   4.052   4.386 -0.4568  0.8596 -0.4066
  849SOL     MW 3396   2.490   4.021   4.375 -0.3296  0.3450  0.0656
  850SOL     OW 3397   4.210   1.425   3.787 -0.5465 -0.9024 -0.3256
  850SOL    HW1 3398   4.131   1.439   3.735 -0.4783  0.3021 -0.1246
  850SOL    HW2 3399   4.242   1.512   3.807 -0.6422 -1.2933  1.8385
  850SOL     MW 3400   4.204   1.438   3.783 -0.5500 -0.7983 -0.0229
  851SOL     OW 3401   2.060   3.353   0.570 -0.9382 -0.5110 -0.1060
  851SOL    HW1 3402   2.049   3.396   0.655 -0.7359 -0.7446  0.0437
  851SOL    HW2 3403   1.999   3.397   0.512 -1.8764 -1.0674  0.4309
  851SOL     MW 3404   2.051   3.364   0.574 -1.0324 -0.6122 -0.0181
  852SOL     OW 3405   5.384   1.966   5.348  0.3590 -0.0719 -0.4028
  852SOL    HW1 3406   5.392   2.035   5.282 -1.2641  1.6431  1.1084
  852SOL    HW2 3407   5.291   1.964   5.371  0.9824  0.0602  2.4991
  852SOL     MW 3408   5.373   1.974   5.342  0.2311  0.1646  0.1621
  853SOL     OW 3409   2.957   4.829   3.167 -0.5693 -0.0059  0.3520
  853SOL    HW1 3410   3.026   4.813   3.231 -0.2026 -0.8734 -0.2295
  853SOL    HW2 3411   2.900   4.894   3.208  0.5786  0.7225  0.8569
  853SOL     MW 3412   2.959   4.835   3.180 -0.3754 -0.0237  0.3422
  854SOL     OW 3413   5.460   3.913   3.370 -0.2319  0.4069  0.1293
  854SOL    HW1 3414   5.477   3.959   3.288 -2.4037 -0.6471 -0.9760
  854SOL    HW2 3415   5.387   3.960   3.410 -1.7442 -1.3208 -0.4795
  854SOL     MW 3416   5.453   3.925   3.365 -0.7035  0.0508 -0.0901
  855SOL     OW 3417   3.290   3.332   4.688 -0.0586 -0.4377 -0.1081
  855SOL    HW1 3418   3.249   3.266   4.633  0.5170  0.3698 -1.5624
  855SOL    HW2 3419   3.362   3.286   4.732 -0.0534 -0.9263 -0.6153
  855SOL     MW 3420   3.294   3.318   4.687  0.0158 -0.3969 -0.3592
  856SOL     OW 3421   0.567   3.446   3.319  0.2321 -0.0069 -0.5105
  856SOL    HW1 3422   0.559   3.513   3.388  1.2503 -0.1572 -0.2254
  856SOL    HW2 3423   0.640   3.475   3.266 -0.8198  0.3330 -1.8200
  856SOL     MW 3424   0.575   3.458   3.321  0.2278  0.0174 -0.6416
  857SOL     OW 3425   0.859   2.360   3.403 -0.4261  0.1611 -0.1251
  857SOL    HW1 3426   0.890   2.445   3.436 -0.3297 -0.1180  0.5113
  857SOL    HW2 3427   0.802   2.326   3.472 -0.1822 -0.4555 -0.2214
  857SOL     MW 3428   0.856   2.367   3.416 -0.3825  0.0464 -0.0559
  858SOL     OW 3429   5.263   1.234   0.708 -0.0290 -0.7037 -0.2171
  858SOL    HW1 3430   5.278   1.140   0.713 -2.0908 -1.0846 -0.2632
  858SOL    HW2 3431   5.168   1.243   0.704  0.0890  1.4166  0.3829
  858SOL     MW 3432   5.253   1.223   0.708 -0.2779 -0.4810 -0.1462
  859SOL     OW 3433   3.302   1.834   5.038  0.1316 -0.1357 -0.0650
  859SOL    HW1 3434   3.257   1.755   5.008 -1.6827  1.2598 -1.1713
  859SOL    HW2 3435   3.363   1.855   4.968 -0.6500  0.4003 -0.6038
  859SOL     MW 3436   3.304   1.826   5.025 -0.2007  0.1115 -0.2756
  860SOL     OW 3437   2.178   2.888   4.664 -0.0629  0.1187 -0.1913
  860SOL    HW1 3438   2.240   2.944   4.710 -1.6196  0.6289  1.3632
  860SOL    HW2 3439   2.100   2.942   4.653 -1.2987 -1.4354  0.5943
  860SOL     MW 3440   2.176   2.902   4.668 -0.4204 -0.0149  0.1083
  861SOL     OW 3441   0.662   5.465   1.872  0.1083  0.1924  0.5041
  861SOL    HW1 3442   0.730   5.397   1.872  0.2109  0.2944  0.6098
  861SOL    HW2 3443   0.582   5.418   1.893  0.2845  0.2034  1.2371
  861SOL     MW 3444   0.661   5.450   1.875  0.1440  0.2069  0.6114
  862SOL     OW 3445   5.177   0.032   1.767 -0.0769 -0.3249  0.3325
  862SOL    HW1 3446   5.169   0.032   1.862 -0.0889  0.2895  0.3313
  862SOL    HW2 3447   5.103   0.084   1.737  0.1643 -0.1728  0.0026
  862SOL     MW 3448   5.166   0.039   1.775 -0.0475 -0.2268  0.2901
  863SOL     OW 3449   0.338   5.422   0.529  0.3646 -0.0233 -0.1827
  863SOL    HW1 3450   0.274   5.441   0.461  0.3694  0.1004 -0.1536
  863SOL    HW2 3451   0.346   5.504   0.578 -0.7150 -0.5270  0.8755
  863SOL     MW 3452   0.331   5.435   0.527  0.2270 -0.0720 -0.0435
  864SOL     OW 3453   1.661   0.501   3.810  0.4126  0.6427  0.0408
  864SOL    HW1 3454   1.738   0.511   3.753 -0.4578  1.6846 -1.0046
  864SOL    HW2 3455   1.694   0.521   3.897  2.0827 -2.2418  0.1936
  864SOL     MW 3456   1.675   0.505   3.814  0.5150  0.4068 -0.0735
  865SOL     OW 3457   1.996   4.688   4.248  0.2643  0.6444 -0.1969
  865SOL    HW1 3458   1.954   4.733   4.321 -0.0874  1.6050 -0.9863
  865SOL    HW2 3459   2.088   4.684   4.272 -0.1534 -1.1201  1.3618
  865SOL     MW 3460   2.002   4.693   4.260  0.1658  0.5415 -0.0984
  866SOL     OW 3461   5.016   2.759   3.041 -0.6439  0.7217 -0.2247
  866SOL    HW1 3462   4.977   2.679   3.008 -0.7160  1.2686 -1.5220
  866SOL    HW2 3463   4.989   2.764   3.132  0.5199 -1.4314  0.2937
  866SOL     MW 3464   5.008   2.750   3.048 -0.5041  0.5161 -0.3244
  867SOL     OW 3465   0.305   3.082   3.984  0.7503  0.3949  0.0260
  867SOL    HW1 3466   0.358   3.004   4.002  1.2227  0.9952  1.3928
  867SOL    HW2 3467   0.302   3.128   4.068 -2.1382  0.2799  0.0542
  867SOL     MW 3468   0.312   3.078   3.997  0.4410  0.4571  0.2045
  868SOL     OW 3469   4.803   0.444   2.450  0.4147  0.2471  0.3804
  868SOL    HW1 3470   4.710   0.450   2.474  0.1595 -0.8975 -0.2613
  868SOL    HW2 3471   4.814   0.354   2.419  1.6992  0.4324  0.2594
  868SOL     MW 3472   4.792   0.433   2.449  0.5465  0.1243  0.2828
  869SOL     OW 3473   3.367   0.659   3.385 -0.4297 -0.0336 -0.1298
  869SOL    HW1 3474   3.414   0.674   3.303  1.2809 -1.3158  0.5419
  869SOL    HW2 3475   3.372   0.564   3.398 -1.4620  0.0472  1.0072
  869SOL     MW 3476   3.374   0.649   3.376 -0.3429 -0.1874  0.1017
  870SOL     OW 3477   1.233   2.210   5.376  0.6841  0.0075  0.2202
  870SOL    HW1 3478   1.269   2.213   5.464 -0.1216 -0.8940  0.5908
  870SOL    HW2 3479   1.289   2.147   5.329 -0.3339 -1.3525  0.7799
  870SOL     MW 3480   1.245   2.202   5.381  0.4506 -0.2820  0.3393
  871SOL     OW 3481   5.158   4.815   3.881  0.2866  0.4254 -0.2130
  871SOL    HW1 3482   5.216   4.749   3.921  0.2998  1.4064  1.4858
  871SOL    HW2 3483   5.124   4.865   3.955 -3.4135 -0.5793 -1.0251
  871SOL     MW 3484   5.161   4.813   3.896 -0.1854  0.4223 -0.0995
  872SOL     OW 3485   0.996   0.933   2.044 -0.1909 -0.0374 -0.1935
  872SOL    HW1 3486   0.967   0.852   2.001  1.4761 -0.5244 -0.4770
  872SOL    HW2 3487   1.091   0.932   2.035 -0.1589  2.3790 -0.9695
  872SOL     MW 3488   1.004   0.922   2.037  0.0266  0.2096 -0.3291
  873SOL     OW 3489   4.208   4.432   2.314  0.3001 -0.3204 -0.0767
  873SOL    HW1 3490   4.232   4.523   2.331 -2.0004  0.2562  0.4199
  873SOL    HW2 3491   4.137   4.438   2.251 -1.0098 -1.6481  1.2064
  873SOL     MW 3492   4.202   4.445   2.308 -0.1621 -0.4165  0.1511
  874SOL     OW 3493   2.630   0.202   3.745 -0.0154  0.0054 -0.2372
  874SOL    HW1 3494   2.595   0.179   3.659  1.6875 -1.0814 -0.6873
  874SOL    HW2 3495   2.560   0.179   3.807 -0.5275 -0.9947 -1.1699
  874SOL     MW 3496   2.616   0.196   3.742  0.1370 -0.2617 -0.4142
  875SOL     OW 3497   5.197   5.428   1.212 -0.1983 -0.4014 -0.0385
  875SOL    HW1 3498   5.234   5.463   1.293  1.1754 -2.1373  0.1533
  875SOL    HW2 3499   5.269   5.378   1.173 -1.3044 -0.8923 -1.5455
  875SOL     MW 3500   5.211   5.426   1.217 -0.1641 -0.6864 -0.2069
  876SOL     OW 3501   3.186   3.319   1.992 -0.1329  0.1976 -0.2425
  876SOL    HW1 3502   3.205   3.226   2.003 -1.5057  0.0275  0.9590
  876SOL    HW2 3503   3.093   3.322   1.969 -0.5302  1.3085  1.3187
  876SOL     MW 3504   3.177   3.308   1.991 -0.3595  0.3180  0.1112
  877SOL     OW 3505   0.700   2.693   4.026  0.1770  0.2400 -0.0435
  877SOL    HW1 3506   0.615   2.709   4.069 -0.1707  1.7495 -1.1792
  877SOL    HW2 3507   0.678   2.638   3.951  0.2283  0.4427 -0.2081
  877SOL     MW 3508   0.686   2.688   4.022  0.1391  0.4592 -0.2100
  878SOL     OW 3509   0.815   4.213   4.702 -0.0825  0.4068  0.1229
  878SOL    HW1 3510   0.722   4.191   4.707 -0.1666  0.7622  0.1829
  878SOL    HW2 3511   0.854   4.144   4.649 -1.0575  2.2990 -3.4199
  878SOL     MW 3512   0.808   4.201   4.696 -0.2180  0.6945 -0.3230
  879SOL     OW 3513   1.575   2.588   3.091  0.4926  0.0810 -0.2203
  879SOL    HW1 3514   1.536   2.527   3.154 -0.1631  1.3122  0.6132
  879SOL    HW2 3515   1.596   2.533   3.015 -0.6899 -1.0659  0.2250
  879SOL     MW 3516   1.573   2.573   3.090  0.2573  0.0918 -0.0566
  880SOL     OW 3517   1.239   1.375   1.456  0.2782 -0.0739  0.4477
  880SOL    HW1 3518   1.182   1.404   1.528  0.1134  0.1978  0.2114
  880SOL    HW2 3519   1.318   1.343   1.499  0.0556 -0.1977  0.7658
  880SOL     MW 3520   1.242   1.375   1.471  0.2286 -0.0549  0.4582
  881SOL     OW 3521   4.299   1.828   3.096 -0.3382 -0.0150  0.2062
  881SOL    HW1 3522   4.315   1.735   3.081  0.9709  0.3336 -0.7385
  881SOL    HW2 3523   4.234   1.830   3.167  0.4692 -1.6233  1.0521
  881SOL     MW 3524   4.293   1.816   3.103 -0.0673 -0.1762  0.1935
  882SOL     OW 3525   3.502   0.525   4.228  0.3245  0.7547  0.4110
  882SOL    HW1 3526   3.554   0.452   4.196  0.1940  1.0387 -0.4859
  882SOL    HW2 3527   3.432   0.485   4.278  1.2823  0.3563  1.4680
  882SOL     MW 3528   3.500   0.511   4.230  0.4304  0.7400  0.4315
  883SOL     OW 3529   4.580   1.801   0.838  0.4908  0.4250  0.2839
  883SOL    HW1 3530   4.551   1.868   0.899  1.8478  2.0634 -0.7861
  883SOL    HW2 3531   4.676   1.810   0.836  0.6431 -1.0341 -0.4669
  883SOL     MW 3532   4.589   1.810   0.845  0.6840  0.4480  0.0508
  884SOL     OW 3533   1.766   3.081   1.745  0.3016  0.0613 -0.1134
  884SOL    HW1 3534   1.820   3.003   1.734 -0.1562 -0.1722 -0.7364
  884SOL    HW2 3535   1.695   3.052   1.802  0.3613  0.1389  0.0010
  884SOL     MW 3536   1.764   3.067   1.751  0.2506  0.0413 -0.1785
  885SOL     OW 3537   5.222   3.360   1.766  0.5334  0.1496  0.4276
  885SOL    HW1 3538   5.271   3.420   1.822  0.5283  0.2963  0.2752
  885SOL    HW2 3539   5.142   3.341   1.814  1.0704 -0.6842  1.0216
  885SOL     MW 3540   5.218   3.365   1.779  0.6015  0.0617  0.4841
  886SOL     OW 3541   0.839   2.879   2.042  0.2717  0.8083  0.3726
  886SOL    HW1 3542   0.791   2.852   2.120 -1.3575 -0.7726 -1.0641
  886SOL    HW2 3543   0.924   2.836   2.051 -0.0901  0.1994  1.0390
  886SOL     MW 3544   0.844   2.870   2.053  0.0168  0.5280  0.2740
  887SOL     OW 3545   3.166   3.999   0.849  0.1819  0.3902  0.0800
  887SOL    HW1 3546   3.129   3.911   0.860  0.7046  0.1819  0.1863
  887SOL    HW2 3547   3.144   4.023   0.759  1.1601 -0.3769 -0.3711
  887SOL     MW 3548   3.158   3.991   0.839  0.3740  0.2653  0.0359
  888SOL     OW 3549   4.892   3.542   2.044  0.2809 -0.0372  0.4545
  888SOL    HW1 3550   4.878   3.471   2.106  1.6761 -0.4083  0.3607
  888SOL    HW2 3551   4.971   3.586   2.074 -0.9304  1.9637  0.9383
  888SOL     MW 3552   4.900   3.538   2.056  0.3044  0.1714  0.5044
  889SOL     OW 3553   5.189   1.727   0.112 -0.1898 -0.6970 -0.0679
  889SOL    HW1 3554   5.281   1.720   0.139 -0.7940  0.4264  2.5424
  889SOL    HW2 3555   5.163   1.815   0.139 -1.5004 -0.1519 -2.7593
  889SOL     MW 3556   5.198   1.737   0.119 -0.4349 -0.4834 -0.0783
  890SOL     OW 3557   0.444   1.276   4.139 -0.0465  0.2341  1.2850
  890SOL    HW1 3558   0.493   1.197   4.164 -0.2730  0.1167  1.3666
  890SOL    HW2 3559   0.502   1.348   4.159 -0.3361  0.1627  2.4662
  890SOL     MW 3560   0.457   1.275   4.145 -0.1126  0.2100  1.4467
  891SOL     OW 3561   3.392   2.548   1.100  0.0732  0.1259 -0.0430
  891SOL    HW1 3562   3.412   2.459   1.130  1.2071 -0.6523 -2.7579
  891SOL    HW2 3563   3.315   2.538   1.044  1.0199  0.5412 -1.4882
  891SOL     MW 3564   3.385   2.535   1.097  0.3395  0.0794 -0.5755
  892SOL     OW 3565   2.818   2.781   2.964  0.1655 -0.0416 -0.1078
  892SOL    HW1 3566   2.853   2.796   3.052  0.0462 -0.7579  0.0670
  892SOL    HW2 3567   2.895   2.754   2.913  0.2540  0.4749 -0.2558
  892SOL     MW 3568   2.833   2.779   2.969  0.1615 -0.0672 -0.1044
  893SOL     OW 3569   4.618   5.191   1.210 -0.2604 -0.3713  0.3480
  893SOL    HW1 3570   4.581   5.116   1.163 -0.0132 -1.0587  1.2278
  893SOL    HW2 3571   4.547   5.255   1.213 -0.5269 -0.6330 -0.2693
  893SOL     MW 3572   4.605   5.190   1.204 -0.2629 -0.4928  0.3816
  894SOL     OW 3573   2.364   1.597   0.171  0.7058 -0.0494 -0.7994
  894SOL    HW1 3574   2.322   1.596   0.257 -0.1188  2.2203 -1.0945
  894SOL    HW2 3575   2.452   1.631   0.187  0.5715  0.3173 -0.8121
  894SOL     MW 3576   2.370   1.601   0.184  0.5830  0.2881 -0.8388
  895SOL     OW 3577   2.295   4.429   2.145 -0.1758  0.3167 -0.0917
  895SOL    HW1 3578   2.219   4.474   2.108  0.1710  0.9516 -0.0545
  895SOL    HW2 3579   2.259   4.351   2.188 -0.5127 -0.9607 -2.5067
  895SOL     MW 3580   2.281   4.425   2.146 -0.1745  0.2345 -0.3961
  896SOL     OW 3581   0.328   3.647   5.269 -0.4079  0.3069 -0.0071
  896SOL    HW1 3582   0.289   3.664   5.355  1.1982 -1.9067  1.2590
  896SOL    HW2 3583   0.410   3.601   5.288 -0.1812 -0.6265 -2.7415
  896SOL     MW 3584   0.334   3.643   5.282 -0.1733 -0.0959 -0.1951
  897SOL     OW 3585   5.283   3.197   3.576 -0.0904 -0.0410  0.4974
  897SOL    HW1 3586   5.237   3.271   3.617 -0.9020 -1.4040  2.2155
  897SOL    HW2 3587   5.214   3.152   3.527  0.2084 -0.1162  0.1529
  897SOL     MW 3588   5.268   3.201   3.575 -0.1560 -0.2251  0.6732
  898SOL     OW 3589   2.782   1.731   3.608 -0.7897 -0.0484  0.2372
  898SOL    HW1 3590   2.849   1.764   3.667 -0.7984  0.1636  0.1293
  898SOL    HW2 3591   2.821   1.654   3.567 -0.3587  0.4596 -0.3228
  898SOL     MW 3592   2.795   1.725   3.610 -0.7356  0.0438  0.1517
  899SOL     OW 3593   2.574   4.672   2.980 -0.0860  0.7532  0.0551
  899SOL    HW1 3594   2.549   4.580   2.973  0.3783  0.7046 -1.2388
  899SOL    HW2 3595   2.512   4.709   3.043  0.4917 -0.7024  1.5537
  899SOL     MW 3596   2.563   4.665   2.987  0.0474  0.5607  0.0813
  900SOL     OW 3597   3.111   0.799   1.610  0.8358  0.5894  0.0256
  900SOL    HW1 3598   3.080   0.819   1.698 -0.9940 -1.0826 -0.1607
  900SOL    HW2 3599   3.202   0.828   1.609  1.8155 -1.7073  3.3776
  900SOL     MW 3600   3.118   0.805   1.621  0.7270  0.0814  0.4308
  901SOL     OW 3601   1.861   0.592   3.613  0.0774 -0.5835 -0.6179
  901SOL    HW1 3602   1.912   0.672   3.599  0.0146 -0.4890 -0.3040
  901SOL    HW2 3603   1.921   0.521   3.589 -0.1010 -0.4217 -1.6059
  901SOL     MW 3604   1.875   0.593   3.608  0.0465 -0.5507 -0.7042
  902SOL     OW 3605   1.710   1.066   3.995  0.0416  0.0628  0.4586
  902SOL    HW1 3606   1.669   0.984   3.967  0.2178 -0.2747  1.1637
  902SOL    HW2 3607   1.731   1.112   3.914 -1.2234 -0.0073  0.0584
  902SOL     MW 3608   1.707   1.062   3.981 -0.0978  0.0106  0.4976
  903SOL     OW 3609   3.719   0.090   3.322 -0.7982  0.4153  0.1928
  903SOL    HW1 3610   3.673   0.006   3.317 -1.1977  0.5288  1.4217
  903SOL    HW2 3611   3.669   0.149   3.266 -0.9065 -0.0007 -0.1495
  903SOL     MW 3612   3.707   0.087   3.315 -0.8632  0.3766  0.3063
  904SOL     OW 3613   0.094   1.200   1.621  0.1473  0.2473 -0.3107
  904SOL    HW1 3614   0.133   1.286   1.611  0.4525  0.0986 -0.4255
  904SOL    HW2 3615   0.164   1.147   1.661 -0.9466  0.7893  2.5746
  904SOL     MW 3616   0.108   1.204   1.625  0.0463  0.2977  0.0439
  905SOL     OW 3617   5.015   3.673   1.263  0.2540 -0.3630  0.3384
  905SOL    HW1 3618   4.956   3.748   1.252 -0.6188 -1.0458  0.2497
  905SOL    HW2 3619   4.959   3.596   1.251  1.1962 -1.0342  0.1201
  905SOL     MW 3620   5.000   3.673   1.260  0.2629 -0.5363  0.2991
  906SOL     OW 3621   0.075   0.286   3.834  0.8108  0.2489  0.0993
  906SOL    HW1 3622   0.054   0.321   3.747  0.4166  0.1772  0.1623
  906SOL    HW2 3623   0.141   0.219   3.818 -0.5748 -1.0743 -0.3711
  906SOL     MW 3624   0.081   0.282   3.821  0.5829  0.0703  0.0471
  907SOL     OW 3625   1.898   4.854   2.365  0.2573 -0.5643 -0.1430
  907SOL    HW1 3626   1.900   4.810   2.450 -0.3237  3.1923  2.0620
  907SOL    HW2 3627   1.807   4.846   2.336  0.7780 -3.2146 -1.3696
  907SOL     MW 3628   1.887   4.847   2.372  0.2496 -0.4227 -0.0178
  908SOL     OW 3629   2.878   0.387   5.351 -0.4139 -0.0470  0.1041
  908SOL    HW1 3630   2.791   0.353   5.332 -0.1494  0.0035 -1.3812
  908SOL    HW2 3631   2.936   0.334   5.296  0.3990  0.4092  0.5147
  908SOL     MW 3632   2.874   0.376   5.341 -0.2760  0.0179 -0.0335
  909SOL     OW 3633   2.058   2.398   3.387  0.3105  0.2463  0.3938
  909SOL    HW1 3634   2.072   2.340   3.462 -1.1717  1.3714  1.5982
  909SOL    HW2 3635   2.063   2.487   3.424 -0.7635  0.8128 -0.7552
  909SOL     MW 3636   2.060   2.402   3.402 -0.0167  0.4628  0.4009
  910SOL     OW 3637   4.935   2.518   3.717  0.0504  0.2604  0.1069
  910SOL    HW1 3638   4.960   2.431   3.748 -1.9431 -0.3822  0.0594
  910SOL    HW2 3639   4.916   2.568   3.796  2.1057  1.0256  0.1924
  910SOL     MW 3640   4.936   2.513   3.731  0.0583  0.2761  0.1118
  911SOL     OW 3641   1.931   5.478   0.025  0.1422 -0.1330 -0.0999
  911SOL    HW1 3642   1.981   5.449   0.101 -1.2009 -0.5132  0.6667
  911SOL    HW2 3643   1.854   5.421   0.023 -0.1767  0.3015 -1.3658
  911SOL     MW 3644   1.928   5.467   0.034 -0.0705 -0.1260 -0.1638
  912SOL     OW 3645   3.812   2.103   1.348  0.2787  0.5044 -0.5130
  912SOL    HW1 3646   3.747   2.082   1.415 -0.9088 -0.8094 -1.9939
  912SOL    HW2 3647   3.881   2.037   1.359 -0.5296 -0.5117 -1.3389
  912SOL     MW 3648   3.813   2.092   1.358  0.0232  0.2061 -0.8083
  913SOL     OW 3649   3.144   3.540   2.161  0.5467 -0.3367  0.3032
  913SOL    HW1 3650   3.162   3.464   2.106  0.4269 -0.2685  0.1682
  913SOL    HW2 3651   3.231   3.574   2.185  0.6133 -1.0335  1.0938
  913SOL     MW 3652   3.158   3.535   2.157  0.5399 -0.4172  0.3871
  914SOL     OW 3653   5.044   0.551   2.279  0.1860 -0.0677  0.1063
  914SOL    HW1 3654   5.075   0.628   2.232 -0.2348  0.7831  1.2014
  914SOL    HW2 3655   5.050   0.574   2.371  1.3059 -1.8379  0.5201
  914SOL     MW 3656   5.049   0.564   2.285  0.2755 -0.1854  0.2994
  915SOL     OW 3657   0.238   4.768   0.133  0.0210 -0.1414  0.2027
  915SOL    HW1 3658   0.195   4.778   0.048 -1.8488 -0.9318  0.9985
  915SOL    HW2 3659   0.331   4.783   0.115 -0.2795 -0.6222 -2.0279
  915SOL     MW 3660   0.244   4.771   0.119 -0.2568 -0.3041  0.0191
  916SOL     OW 3661   2.456   0.907   2.331 -0.1098  0.2855 -0.5057
  916SOL    HW1 3662   2.486   0.826   2.374 -1.8526  0.6015  1.5044
  916SOL    HW2 3663   2.508   0.976   2.372 -1.7912  0.5902  1.3096
  916SOL     MW 3664   2.466   0.905   2.342 -0.5482  0.3650 -0.0160
  917SOL     OW 3665   1.182   3.014   4.340  0.2811 -0.3301  0.1922
  917SOL    HW1 3666   1.233   3.036   4.417 -0.5601  0.7463  0.4648
  917SOL    HW2 3667   1.118   3.085   4.332 -2.5308 -2.5426  1.0536
  917SOL     MW 3668   1.180   3.026   4.349 -0.1866 -0.4756  0.3374
  918SOL     OW 3669   1.489   5.003   2.046  1.0227  0.1285  0.3201
  918SOL    HW1 3670   1.461   5.023   2.135 -0.1199 -2.0572  0.5334
  918SOL    HW2 3671   1.419   4.947   2.011  2.3127 -0.5761 -1.2872
  918SOL     MW 3672   1.477   4.998   2.053  1.0416 -0.2415  0.1417
  919SOL     OW 3673   0.857   2.566   1.033  0.2975  0.6595 -0.6154
  919SOL    HW1 3674   0.936   2.536   1.077  1.0468 -1.2439 -3.0648
  919SOL    HW2 3675   0.789   2.505   1.061  0.5012  0.1648 -1.2035
  919SOL     MW 3676   0.858   2.555   1.042  0.4195  0.3525 -1.0043
  920SOL     OW 3677   4.653   0.816   2.396  0.1521 -0.0599  0.0517
  920SOL    HW1 3678   4.707   0.788   2.322 -0.7218 -1.7586  0.0176
  920SOL    HW2 3679   4.589   0.877   2.357 -0.8302 -1.5681 -0.8083
  920SOL     MW 3680   4.652   0.820   2.381 -0.0855 -0.4704 -0.0628
  921SOL     OW 3681   3.311   4.092   1.324  0.0033  0.0290  0.1293
  921SOL    HW1 3682   3.221   4.075   1.296  0.3625  0.0723 -1.1277
  921SOL    HW2 3683   3.303   4.154   1.395 -0.9636  0.0516  0.0158
  921SOL     MW 3684   3.298   4.098   1.329 -0.0745  0.0375 -0.0462
  922SOL     OW 3685   1.247   0.524   0.033 -0.6488  0.3746 -0.2440
  922SOL    HW1 3686   1.256   0.483   0.119  2.7530  0.0183 -0.6382
  922SOL    HW2 3687   1.288   0.610   0.043 -0.9033  0.6334 -1.3285
  922SOL     MW 3688   1.253   0.530   0.045 -0.2459  0.3621 -0.4333
  923SOL     OW 3689   4.924   1.823   5.147 -0.6281  0.1540  0.3108
  923SOL    HW1 3690   4.935   1.814   5.052  1.2546 -0.5261  0.5567
  923SOL    HW2 3691   4.980   1.898   5.171 -0.4348 -0.1986  0.9843
  923SOL     MW 3692   4.933   1.832   5.138 -0.3623  0.0218  0.4285
  924SOL     OW 3693   2.713   5.319   0.128 -0.1405 -0.5209 -0.1073
  924SOL    HW1 3694   2.620   5.326   0.106  0.1308 -0.5164 -1.3152
  924SOL    HW2 3695   2.719   5.239   0.181 -1.0078  0.1806  1.1189
  924SOL     MW 3696   2.701   5.309   0.132 -0.2168 -0.4305 -0.1050
  925SOL     OW 3697   3.330   4.203   0.886  0.0784  0.2688  0.2072
  925SOL    HW1 3698   3.265   4.132   0.879 -0.9662  1.1845  0.2817
  925SOL    HW2 3699   3.405   4.171   0.836 -1.6771  0.5510 -2.9022
  925SOL     MW 3700   3.331   4.190   0.879 -0.2801  0.4222 -0.1813
  926SOL     OW 3701   0.935   4.441   1.483  0.2518 -0.1505  0.1539
  926SOL    HW1 3702   0.872   4.443   1.411 -0.3314 -0.6515  0.6349
  926SOL    HW2 3703   1.011   4.395   1.448 -1.3532 -3.7018  0.8335
  926SOL     MW 3704   0.937   4.435   1.470 -0.0283 -0.6693  0.3025
  927SOL     OW 3705   0.817   4.764   3.555 -0.3417  0.2021 -0.3153
  927SOL    HW1 3706   0.769   4.846   3.568 -0.0503  0.2602  0.4390
  927SOL    HW2 3707   0.909   4.789   3.563 -0.2298 -0.1100 -0.6004
  927SOL     MW 3708   0.823   4.778   3.558 -0.2901  0.1696 -0.2552
  928SOL     OW 3709   2.507   2.851   0.752 -0.1945  0.4841  0.4687
  928SOL    HW1 3710   2.449   2.908   0.803  1.6139  0.2214  3.0039
  928SOL    HW2 3711   2.519   2.897   0.669 -0.7302  2.5880  1.4849
  928SOL     MW 3712   2.501   2.864   0.748 -0.0316  0.7198  0.9233
  929SOL     OW 3713   2.934   1.458   2.120 -0.5241  0.1351  0.4822
  929SOL    HW1 3714   2.874   1.439   2.048  0.8794 -1.7375 -0.2880
  929SOL    HW2 3715   3.005   1.507   2.080  0.0363 -0.5130  0.6560
  929SOL     MW 3716   2.935   1.462   2.105 -0.2727 -0.1876  0.4059
  930SOL     OW 3717   0.233   1.955   2.822 -0.0159  0.4216 -0.2534
  930SOL    HW1 3718   0.172   1.980   2.753 -0.4315  0.5125  0.1375
  930SOL    HW2 3719   0.249   2.035   2.871 -1.6292 -0.0715  1.2157
  930SOL     MW 3720   0.227   1.968   2.819 -0.2756  0.3701 -0.0153
  931SOL     OW 3721   1.519   1.480   3.167 -0.0358 -0.6230 -0.6199
  931SOL    HW1 3722   1.512   1.568   3.130 -1.1658 -1.3495 -2.2471
  931SOL    HW2 3723   1.434   1.466   3.210  0.9244 -0.1407  1.5779
  931SOL     MW 3724   1.507   1.490   3.168 -0.0576 -0.6543 -0.5468
  932SOL     OW 3725   5.167   4.405   0.948 -0.8392 -0.1057 -0.5813
  932SOL    HW1 3726   5.108   4.476   0.973 -0.6882 -0.7683  1.9658
  932SOL    HW2 3727   5.244   4.417   1.004 -0.5201 -1.8502 -0.5877
  932SOL     MW 3728   5.169   4.415   0.958 -0.7790 -0.4138 -0.2561
  933SOL     OW 3729   4.251   4.064   1.461 -0.5978 -0.0120  0.4391
  933SOL    HW1 3730   4.251   4.053   1.366  1.4225  1.5656  0.1926
  933SOL    HW2 3731   4.159   4.072   1.484 -1.0827  1.3533 -1.6579
  933SOL     MW 3732   4.239   4.064   1.452 -0.4013  0.3647  0.1391
  934SOL     OW 3733   1.390   3.168   4.102  0.2048 -0.1137  0.0842
  934SOL    HW1 3734   1.432   3.215   4.174  0.0019  1.1767 -0.6043
  934SOL    HW2 3735   1.415   3.076   4.114  1.8055  0.3764  0.6567
  934SOL     MW 3736   1.399   3.162   4.113  0.3837  0.1143  0.0693
  935SOL     OW 3737   4.347   0.396   4.509  0.1815 -0.3403  0.0518
  935SOL    HW1 3738   4.383   0.483   4.531  0.7106 -0.7146  0.6900
  935SOL    HW2 3739   4.418   0.353   4.461 -0.5577  0.0548 -1.4632
  935SOL     MW 3740   4.361   0.402   4.506  0.1546 -0.3376 -0.0604
  936SOL     OW 3741   1.921   2.484   4.742 -0.1441  0.2855  0.0261
  936SOL    HW1 3742   1.872   2.504   4.662  1.3399 -0.0774 -1.0075
  936SOL    HW2 3743   1.990   2.549   4.745  0.2250 -0.1222  0.6445
  936SOL     MW 3744   1.924   2.495   4.732  0.0931  0.1868 -0.0271
  937SOL     OW 3745   2.119   3.961   0.339  0.0923  0.1372  0.3859
  937SOL    HW1 3746   2.147   4.052   0.325 -1.5859  0.5014 -0.9737
  937SOL    HW2 3747   2.039   3.969   0.391 -0.4012 -0.5163 -0.2625
  937SOL     MW 3748   2.113   3.974   0.344 -0.1857  0.1002  0.1288
  938SOL     OW 3749   3.378   0.278   5.432  0.2882 -0.2401  0.6577
  938SOL    HW1 3750   3.319   0.283   5.356  0.5500  3.3382  0.4997
  938SOL    HW2 3751   3.347   0.347   5.491  3.0435  0.4036  1.5001
  938SOL     MW 3752   3.366   0.288   5.430  0.6744  0.3004  0.7453
  939SOL     OW 3753   4.275   2.168   1.087 -0.2645 -0.2540 -0.3434
  939SOL    HW1 3754   4.314   2.233   1.146 -0.5599  0.8703 -1.3372
  939SOL    HW2 3755   4.232   2.106   1.145  1.0964 -0.2795  0.6847
  939SOL     MW 3756   4.274   2.169   1.102 -0.1281 -0.1134 -0.3390
  940SOL     OW 3757   3.653   2.831   4.952  0.6598  0.2288 -0.2182
  940SOL    HW1 3758   3.603   2.876   5.020 -1.4097 -0.8283 -0.9538
  940SOL    HW2 3759   3.645   2.888   4.876  2.6642  1.2266  0.2511
  940SOL     MW 3760   3.645   2.844   4.951  0.6515  0.2212 -0.2523
  941SOL     OW 3761   4.252   1.147   3.830  0.1313 -0.3288  0.1508
  941SOL    HW1 3762   4.211   1.231   3.808  1.4255  0.1353 -0.5976
  941SOL    HW2 3763   4.264   1.103   3.745 -0.5074 -1.2671  0.5317
  941SOL     MW 3764   4.248   1.152   3.816  0.2152 -0.3895  0.1038
  942SOL     OW 3765   0.022   4.741   0.826 -0.4031  0.4676  0.1417
  942SOL    HW1 3766   0.032   4.836   0.821 -0.8662  0.4646 -1.1810
  942SOL    HW2 3767   0.000   4.714   0.737 -0.4030 -0.8716  0.5221
  942SOL     MW 3768   0.020   4.749   0.814 -0.4624  0.2957  0.0211
  943SOL     OW 3769   5.065   0.793   0.348 -0.5197 -0.1374  0.1275
  943SOL    HW1 3770   5.068   0.888   0.361 -0.5906  0.0738 -1.2514
  943SOL    HW2 3771   5.011   0.761   0.419 -0.4057  0.8471  0.6778
  943SOL     MW 3772   5.059   0.801   0.358 -0.5142  0.0156  0.0214
  944SOL     OW 3773   3.057   3.539   1.800  1.3783 -0.2948 -0.3525
  944SOL    HW1 3774   3.014   3.622   1.777  0.8477 -0.3786  0.3103
  944SOL    HW2 3775   3.148   3.563   1.815  0.9054  0.5142  1.5657
  944SOL     MW 3776   3.063   3.553   1.799  1.2498 -0.2020 -0.0221
  945SOL     OW 3777   5.485   5.146   4.696  0.3952  0.3162  0.3732
  945SOL    HW1 3778   5.455   5.065   4.737  1.9017  1.3929  3.9970
  945SOL    HW2 3779   5.420   5.212   4.721  1.2906  0.9842  1.0155
  945SOL     MW 3780   5.473   5.144   4.705  0.7027  0.5395  0.9193
  946SOL     OW 3781   4.599   1.565   0.989 -0.3435  0.7028  0.8644
  946SOL    HW1 3782   4.518   1.515   0.989 -1.5053  2.4752  1.5265
  946SOL    HW2 3783   4.582   1.639   0.931  1.4359  0.2225 -0.3621
  946SOL     MW 3784   4.586   1.568   0.982 -0.2645  0.8682  0.7921
  947SOL     OW 3785   0.852   4.163   2.490  0.0122 -0.3056  0.5715
  947SOL    HW1 3786   0.858   4.074   2.456 -0.2765 -0.0415 -0.1864
  947SOL    HW2 3787   0.789   4.206   2.433  0.2995  0.4440  0.8136
  947SOL     MW 3788   0.845   4.157   2.478  0.0120 -0.1758  0.5054
  948SOL     OW 3789   3.732   3.616   1.286 -0.2454  0.5967 -0.0235
  948SOL    HW1 3790   3.641   3.608   1.255 -1.2512 -1.9769  3.0892
  948SOL    HW2 3791   3.725   3.610   1.381  3.3121 -0.9490  0.2653
  948SOL     MW 3792   3.719   3.615   1.294  0.0813  0.0694  0.4119
  949SOL     OW 3793   4.101   4.503   4.777  0.3379  0.3369  0.3283
  949SOL    HW1 3794   4.107   4.419   4.822  0.3811  0.3733  0.3903
  949SOL    HW2 3795   4.127   4.484   4.687 -0.7305  0.0487  0.0582
  949SOL     MW 3796   4.105   4.490   4.772  0.2067  0.3046  0.3017
  950SOL     OW 3797   3.379   2.741   1.403 -0.0579  0.2184 -1.0889
  950SOL    HW1 3798   3.323   2.815   1.425 -1.0814 -0.5619 -0.9669
  950SOL    HW2 3799   3.388   2.744   1.308 -0.5303  0.2033 -1.1359
  950SOL     MW 3800   3.373   2.751   1.394 -0.2494  0.1165 -1.0793
  951SOL     OW 3801   1.502   0.101   4.011 -0.3514 -0.0641  0.2191
  951SOL    HW1 3802   1.590   0.100   4.048 -0.0917 -0.7392 -0.3723
  951SOL    HW2 3803   1.502   0.175   3.950 -0.0730 -0.2745 -0.0409
  951SOL     MW 3804   1.513   0.110   4.008 -0.2825 -0.1775  0.1101
  952SOL     OW 3805   3.834   4.527   0.087  0.5120 -0.1379  0.1600
  952SOL    HW1 3806   3.853   4.619   0.073  1.5291 -0.1333  1.4359
  952SOL    HW2 3807   3.885   4.482   0.019  0.2594  0.2124 -0.2663
  952SOL     MW 3808   3.843   4.533   0.076  0.6098 -0.0925  0.2687
  953SOL     OW 3809   3.221   1.147   5.326  0.6624 -0.1171  0.0034
  953SOL    HW1 3810   3.314   1.136   5.346  0.8359  0.1897 -0.6336
  953SOL    HW2 3811   3.206   1.093   5.248  0.2823 -0.2332  0.1516
  953SOL     MW 3812   3.231   1.138   5.319  0.6359 -0.0926 -0.0592
  954SOL     OW 3813   1.792   0.895   2.395 -0.0085  0.1118 -0.8413
  954SOL    HW1 3814   1.753   0.871   2.311  0.0253  1.4420 -1.2745
  954SOL    HW2 3815   1.718   0.925   2.448  0.1364  0.5827 -0.8979
  954SOL     MW 3816   1.777   0.896   2.391  0.0144  0.3424 -0.9040
  955SOL     OW 3817   0.699   0.980   0.591 -0.1357 -0.3177  0.0662
  955SOL    HW1 3818   0.792   0.999   0.602 -0.0277 -0.4900 -0.4995
  955SOL    HW2 3819   0.681   1.001   0.499 -0.3807 -1.3886 -0.1414
  955SOL     MW 3820   0.709   0.985   0.581 -0.1533 -0.4769 -0.0328
  956SOL     OW 3821   4.382   1.759   4.125  0.1192 -0.3346 -0.4657
  956SOL    HW1 3822   4.465   1.805   4.116 -1.0346  2.1197  0.3536
  956SOL    HW2 3823   4.359   1.733   4.035  1.1908  0.0690 -0.8700
  956SOL     MW 3824   4.389   1.762   4.112  0.1087  0.0312 -0.4126
  957SOL     OW 3825   4.556   0.112   2.339 -0.0533 -0.6507  0.8288
  957SOL    HW1 3826   4.557   0.037   2.279 -0.8065  1.8991 -2.6899
  957SOL    HW2 3827   4.645   0.146   2.336 -0.7467  1.2340 -1.4787
  957SOL     MW 3828   4.568   0.107   2.331 -0.2385 -0.0831  0.0829
  958SOL     OW 3829   3.038   4.260   0.255  0.6106  0.4356 -0.9173
  958SOL    HW1 3830   3.090   4.182   0.238  1.7162  0.9948 -0.2617
  958SOL    HW2 3831   3.086   4.331   0.211  0.3428  0.9476 -0.4024
  958SOL     MW 3832   3.051   4.259   0.247  0.7179  0.5728 -0.7674
  959SOL     OW 3833   5.026   2.624   5.332 -0.4840 -0.3033  0.4176
  959SOL    HW1 3834   5.066   2.654   5.251  1.9291 -0.3160  1.5227
  959SOL    HW2 3835   5.031   2.528   5.328  0.3187 -0.2859  0.8867
  959SOL     MW 3836   5.032   2.616   5.321 -0.0723 -0.3027  0.6191
  960SOL     OW 3837   0.453   2.789   5.091 -0.1979 -0.2952 -0.2942
  960SOL    HW1 3838   0.358   2.792   5.107 -0.2892  1.5150 -0.8413
  960SOL    HW2 3839   0.490   2.757   5.173 -1.3528 -2.5066 -0.5721
  960SOL     MW 3840   0.445   2.786   5.104 -0.3574 -0.3466 -0.3998
  961SOL     OW 3841   1.919   5.455   0.506  0.0415 -0.1709  0.7594
  961SOL    HW1 3842   1.874   5.536   0.483  0.0368 -0.2854  0.3561
  961SOL    HW2 3843   1.849   5.396   0.535  0.0466 -0.0317  1.0668
  961SOL     MW 3844   1.904   5.458   0.507  0.0416 -0.1678  0.7471
  962SOL     OW 3845   1.758   5.286   1.174 -0.1988 -0.0772 -0.0098
  962SOL    HW1 3846   1.846   5.256   1.196 -0.1098 -0.9035 -1.3879
  962SOL    HW2 3847   1.705   5.262   1.250  0.5481 -0.5317  0.3801
  962SOL     MW 3848   1.763   5.279   1.187 -0.0918 -0.2412 -0.1363
  963SOL     OW 3849   2.032   4.047   1.678  0.4326  0.3508  0.0533
  963SOL    HW1 3850   2.106   4.057   1.618  0.7487 -0.2054  0.3454
  963SOL    HW2 3851   1.961   4.097   1.637  0.9055  0.7091 -0.3348
  963SOL     MW 3852   2.032   4.055   1.665  0.5336  0.3255  0.0410
  964SOL     OW 3853   4.927   2.890   5.023 -0.3391 -0.1952  0.4371
  964SOL    HW1 3854   4.951   2.947   5.096 -1.8805  1.4104 -0.2541
  964SOL    HW2 3855   4.831   2.892   5.021 -0.3492 -0.7148 -1.2395
  964SOL     MW 3856   4.917   2.897   5.032 -0.5377 -0.0562  0.1340
  965SOL     OW 3857   4.032   1.312   2.740 -0.3892  0.2265 -0.9856
  965SOL    HW1 3858   3.936   1.310   2.742 -0.3862  0.3853 -0.3517
  965SOL    HW2 3859   4.054   1.404   2.754 -0.1269 -0.1434  1.3990
  965SOL     MW 3860   4.022   1.323   2.742 -0.3552  0.1995 -0.5992
  966SOL     OW 3861   0.165   4.204   5.338 -0.2250 -0.2738 -0.1253
  966SOL    HW1 3862   0.145   4.294   5.311  0.3885  0.0462  0.4410
  966SOL    HW2 3863   0.128   4.149   5.269 -0.0486  0.4450 -0.8086
  966SOL     MW 3864   0.158   4.209   5.326 -0.1239 -0.1408 -0.1403
  967SOL     OW 3865   4.969   1.790   3.360  0.0870 -0.1800  0.0407
  967SOL    HW1 3866   5.049   1.825   3.323  0.2342 -1.4857 -0.9255
  967SOL    HW2 3867   4.992   1.769   3.451  1.2006 -1.6389 -0.5478
  967SOL     MW 3868   4.982   1.792   3.367  0.2484 -0.5339 -0.1583
  968SOL     OW 3869   0.491   3.921   4.603  0.1125  0.3060  0.3403
  968SOL    HW1 3870   0.415   3.864   4.615 -0.8016  0.9957 -1.7018
  968SOL    HW2 3871   0.555   3.889   4.666 -1.0960 -1.6497  0.6618
  968SOL     MW 3872   0.489   3.910   4.613 -0.1592  0.1440  0.1201
  969SOL     OW 3873   2.994   4.350   2.347  0.3942  0.3145  0.1387
  969SOL    HW1 3874   3.002   4.374   2.440  0.1564 -0.5387  0.3896
  969SOL    HW2 3875   3.083   4.334   2.318  0.4500  0.3560  0.2856
  969SOL     MW 3876   3.006   4.351   2.355  0.3709  0.2106  0.1896
  970SOL     OW 3877   0.918   2.406   3.018 -0.0604 -0.1764  0.4764
  970SOL    HW1 3878   0.861   2.340   2.980 -1.5851  1.6038 -0.4754
  970SOL    HW2 3879   0.859   2.474   3.051  1.4043  0.3869  2.1248
  970SOL     MW 3880   0.903   2.407   3.018 -0.0681  0.1236  0.5656
  971SOL     OW 3881   4.766   2.842   4.244  0.0193 -0.0834  0.3212
  971SOL    HW1 3882   4.842   2.895   4.220 -0.3087 -0.1981 -1.1065
  971SOL    HW2 3883   4.711   2.900   4.296  0.9843  0.0627  1.1982
  971SOL     MW 3884   4.768   2.856   4.247  0.1008 -0.0794  0.2507
  972SOL     OW 3885   1.315   4.949   0.763 -0.2580  0.0790 -0.1565
  972SOL    HW1 3886   1.377   4.884   0.730 -0.1776  0.6883 -1.2437
  972SOL    HW2 3887   1.229   4.906   0.757 -0.1526 -0.0932 -0.4440
  972SOL     MW 3888   1.312   4.935   0.758 -0.2342  0.1350 -0.3324
  973SOL     OW 3889   1.424   0.627   3.863  0.1475 -0.2028 -0.0656
  973SOL    HW1 3890   1.513   0.606   3.835  0.0413 -0.2584 -0.3726
  973SOL    HW2 3891   1.380   0.657   3.783 -1.1062 -3.4196 -0.7500
  973SOL     MW 3892   1.429   0.628   3.849 -0.0266 -0.6217 -0.1925
  974SOL     OW 3893   3.348   0.055   3.496  0.2741 -0.0719 -0.0641
  974SOL    HW1 3894   3.320   0.034   3.407  1.6183  0.2433 -0.5880
  974SOL    HW2 3895   3.376  -0.029   3.533 -1.7263 -0.4722  0.6322
  974SOL     MW 3896   3.348   0.041   3.489  0.1901 -0.0828 -0.0421
  975SOL     OW 3897   2.894   1.474   0.286  0.3655 -0.0791 -0.3143
  975SOL    HW1 3898   2.929   1.559   0.311  1.4544 -0.1165 -1.6492
  975SOL    HW2 3899   2.807   1.472   0.327  1.0555  0.8764  1.3031
  975SOL     MW 3900   2.887   1.485   0.295  0.5932  0.0384 -0.2781
  976SOL     OW 3901   0.325   1.194   1.195 -0.4413 -0.1580 -0.1400
  976SOL    HW1 3902   0.373   1.245   1.130  0.4650 -0.4705  0.2700
  976SOL    HW2 3903   0.241   1.239   1.204 -0.5486 -0.0666 -1.4541
  976SOL     MW 3904   0.320   1.206   1.188 -0.3390 -0.1863 -0.2557
  977SOL     OW 3905   4.929   5.181   5.173 -0.1903 -0.0332 -0.1576
  977SOL    HW1 3906   4.842   5.204   5.205 -0.8152  0.2826 -1.9582
  977SOL    HW2 3907   4.912   5.138   5.089  1.3807 -0.3012 -0.3588
  977SOL     MW 3908   4.915   5.178   5.166 -0.0692 -0.0271 -0.4139
  978SOL     OW 3909   3.258   0.207   1.721  0.3678 -0.1485 -0.2655
  978SOL    HW1 3910   3.237   0.193   1.629 -0.1430 -0.2091 -0.1452
  978SOL    HW2 3911   3.195   0.153   1.769  1.4196 -1.0771  0.0983
  978SOL     MW 3912   3.247   0.198   1.716  0.4370 -0.2751 -0.2036
  979SOL     OW 3913   1.136   4.948   3.139  0.3019 -0.1690 -1.0409
  979SOL    HW1 3914   1.104   5.038   3.131 -0.2136 -0.1059  1.1680
  979SOL    HW2 3915   1.231   4.955   3.127  0.6476  1.1484  1.7193
  979SOL     MW 3916   1.144   4.960   3.136  0.2802  0.0078 -0.4048
  980SOL     OW 3917   1.932   2.016   3.932 -0.4535 -0.7176  0.1914
  980SOL    HW1 3918   2.003   2.012   3.996  0.6910 -0.3087 -1.0046
  980SOL    HW2 3919   1.856   1.982   3.979  0.4726 -0.9817  1.5784
  980SOL     MW 3920   1.932   2.011   3.946 -0.1885 -0.6991  0.2158
  981SOL     OW 3921   0.444   4.638   5.441  0.0216 -0.8628  0.2407
  981SOL    HW1 3922   0.530   4.605   5.413 -0.4234 -0.7606 -1.2948
  981SOL    HW2 3923   0.417   4.576   5.509  0.8354 -1.5279 -0.0181
  981SOL     MW 3924   0.451   4.626   5.447  0.0689 -0.9349  0.0110
  982SOL     OW 3925   1.926   1.955   3.146  0.1006 -0.6869 -0.1756
  982SOL    HW1 3926   1.907   2.041   3.111  0.2826 -0.6781 -0.2562
  982SOL    HW2 3927   1.894   1.957   3.236 -0.7091 -0.8350 -0.4543
  982SOL     MW 3928   1.920   1.966   3.153  0.0202 -0.7047 -0.2216
  983SOL     OW 3929   0.211   1.947   0.416 -0.3013  0.3751 -0.2690
  983SOL    HW1 3930   0.292   1.998   0.426  0.1195 -0.5312  1.2496
  983SOL    HW2 3931   0.175   1.976   0.332  2.6578 -0.6631 -2.0666
  983SOL     MW 3932   0.217   1.957   0.407  0.1314  0.1262 -0.3047
  984SOL     OW 3933   0.590   2.721   1.144 -0.2774  0.4399 -0.6580
  984SOL    HW1 3934   0.599   2.631   1.176 -0.4212  0.6568  0.0072
  984SOL    HW2 3935   0.608   2.715   1.050  1.3987 -0.0104 -0.3320
  984SOL     MW 3936   0.594   2.709   1.136 -0.0812  0.4100 -0.5312
  985SOL     OW 3937   1.682   3.251   3.643 -0.1194  0.2293 -0.0125
  985SOL    HW1 3938   1.769   3.220   3.620  0.4022  2.1083 -0.7963
  985SOL    HW2 3939   1.696   3.308   3.719 -0.7220  0.2605  0.0844
  985SOL     MW 3940   1.695   3.255   3.650 -0.1297  0.4738 -0.1004
  986SOL     OW 3941   4.380   2.930   1.499  0.2739 -0.1649 -0.4342
  986SOL    HW1 3942   4.445   2.882   1.551  0.2398 -0.9858 -1.1411
  986SOL    HW2 3943   4.427   2.953   1.419 -0.0145  0.1331 -0.5183
  986SOL     MW 3944   4.395   2.927   1.496  0.2326 -0.2318 -0.5354
  987SOL     OW 3945   1.919   2.876   1.722 -0.1393 -0.4364  0.2882
  987SOL    HW1 3946   1.945   2.874   1.814 -0.0011  0.1863  0.2659
  987SOL    HW2 3947   1.999   2.857   1.674  0.4562  1.9397  0.1997
  987SOL     MW 3948   1.932   2.873   1.728 -0.0454 -0.0525  0.2740
  988SOL     OW 3949   3.973   2.450   1.911  0.2746 -0.6522  0.3352
  988SOL    HW1 3950   3.935   2.477   1.827 -0.1539 -0.2452  0.6504
  988SOL    HW2 3951   4.061   2.421   1.889  0.4247  0.1272 -0.1647
  988SOL     MW 3952   3.979   2.450   1.897  0.2389 -0.5003  0.3116
  989SOL     OW 3953   4.239   5.283   1.372  0.6017  0.8484 -0.0575
  989SOL    HW1 3954   4.300   5.340   1.420  0.9194 -1.0686  2.0110
  989SOL    HW2 3955   4.172   5.261   1.437 -0.6721  0.5442 -1.4338
  989SOL     MW 3956   4.238   5.287   1.387  0.4793  0.5641  0.0311
  990SOL     OW 3957   2.666   1.772   1.429 -0.0206  0.5863  0.2467
  990SOL    HW1 3958   2.649   1.866   1.428 -0.9441  0.4905  1.8252
  990SOL    HW2 3959   2.659   1.748   1.522  1.4923 -0.8233  0.0323
  990SOL     MW 3960   2.663   1.781   1.441  0.0549  0.3936  0.4213
  991SOL     OW 3961   2.173   4.647   5.339  0.2502 -0.3185  0.2350
  991SOL    HW1 3962   2.230   4.579   5.302 -0.3274 -1.4263  1.2885
  991SOL    HW2 3963   2.218   4.729   5.319  3.0746 -1.1791  2.3536
  991SOL     MW 3964   2.186   4.648   5.331  0.5378 -0.5705  0.6411
  992SOL     OW 3965   4.450   2.660   2.157  0.0661 -0.4868  0.3712
  992SOL    HW1 3966   4.511   2.734   2.164  0.6516 -0.9941  0.6752
  992SOL    HW2 3967   4.369   2.699   2.123  0.5514  0.1956 -0.0265
  992SOL     MW 3968   4.447   2.675   2.153  0.2032 -0.4644  0.3592
  993SOL     OW 3969   4.581   1.914   1.927 -0.0005  0.2899 -0.0380
  993SOL    HW1 3970   4.517   1.845   1.946  0.1670  0.3499  0.7570
  993SOL    HW2 3971   4.595   1.907   1.833 -0.2306 -0.5481 -0.0231
  993SOL     MW 3972   4.575   1.904   1.917 -0.0085  0.1903  0.0657
  994SOL     OW 3973   3.106   1.924   0.958  0.4556  0.1595  0.4908
  994SOL    HW1 3974   3.054   1.900   0.881 -0.5011  2.7403  0.2112
  994SOL    HW2 3975   3.190   1.951   0.921 -0.3143  2.3038  0.1376
  994SOL     MW 3976   3.110   1.925   0.943  0.2346  0.7644  0.4098
  995SOL     OW 3977   5.176   0.109   0.081  0.2260  0.6413  0.0485
  995SOL    HW1 3978   5.159   0.098   0.174 -0.5082 -0.5657 -0.2010
  995SOL    HW2 3979   5.089   0.117   0.042  0.5433  2.0774 -0.4579
  995SOL     MW 3980   5.163   0.109   0.088  0.1727  0.6706 -0.0483
  996SOL     OW 3981   2.865   5.180   3.690 -0.2231  0.1799 -0.1391
  996SOL    HW1 3982   2.798   5.179   3.621 -1.6400  2.5211  1.0835
  996SOL    HW2 3983   2.948   5.187   3.642 -1.1172  1.0758 -1.6493
  996SOL     MW 3984   2.867   5.181   3.675 -0.5189  0.5943 -0.1759
  997SOL     OW 3985   0.887   4.656   1.040 -0.2619  0.1100 -0.1446
  997SOL    HW1 3986   0.848   4.608   0.967  0.0805 -1.9660  0.9587
  997SOL    HW2 3987   0.812   4.697   1.085 -0.8944 -1.4309  0.2729
  997SOL     MW 3988   0.872   4.656   1.037 -0.2991 -0.3530  0.0500
  998SOL     OW 3989   4.150   0.170   5.182  0.1240 -0.0047 -0.4282
  998SOL    HW1 3990   4.097   0.158   5.103  1.3530 -0.5723 -1.2227
  998SOL    HW2 3991   4.192   0.255   5.169 -1.2916  0.8910  0.6552
  998SOL     MW 3992   4.149   0.179   5.170  0.1001  0.0373 -0.3912
  999SOL     OW 3993   3.937   4.523   2.979 -0.1747  0.7756  0.3880
  999SOL    HW1 3994   3.888   4.529   2.898  1.5521  1.0154 -0.6899
  999SOL    HW2 3995   3.906   4.443   3.021 -0.9193  0.5295 -0.6206
  999SOL     MW 3996   3.927   4.513   2.974 -0.0490  0.7748  0.1209
 1000SOL     OW 3997   1.342   5.048   2.782 -0.7521 -0.0864 -0.0958
 1000SOL    HW1 3998   1.343   5.012   2.871 -0.4152  0.1291 -0.0125
 1000SOL    HW2 3999   1.367   5.140   2.793  0.8653 -0.4491 -0.5861
 1000SOL     MW 4000   1.345   5.055   2.795 -0.5019 -0.1053 -0.1479
 1001SOL     OW 4001   1.229   2.593   2.421 -0.3612 -0.6565  0.2469
 1001SOL    HW1 4002   1.177   2.579   2.343  1.2791 -1.9668 -0.7000
 1001SOL    HW2 4003   1.253   2.504   2.449  2.0406 -0.1269  0.0877
 1001SOL     MW 4004   1.226   2.580   2.415  0.1563 -0.7564  0.1053
 1002SOL     OW 4005   2.171   0.558   1.896 -0.4904 -0.3914 -0.6677
 1002SOL    HW1 4006   2.187   0.490   1.961 -0.5627 -0.5865 -0.8548
 1002SOL    HW2 4007   2.253   0.607   1.892 -0.0931 -1.0933 -1.2735
 1002SOL     MW 4008   2.184   0.556   1.903 -0.4488 -0.5062 -0.7692
 1003SOL     OW 4009   5.264   2.817   1.757 -0.1094  0.4922  0.6078
 1003SOL    HW1 4010   5.174   2.791   1.735 -0.1925  0.8313  0.5501
 1003SOL    HW2 4011   5.261   2.912   1.764  0.1533  0.4696  1.0422
 1003SOL     MW 4012   5.252   2.826   1.755 -0.0864  0.5327  0.6560
 1004SOL     OW 4013   4.721   1.651   2.679 -0.0143  0.0043 -0.3937
 1004SOL    HW1 4014   4.671   1.726   2.646  1.4137  2.7472  3.0036
 1004SOL    HW2 4015   4.810   1.666   2.646  0.4391  0.2828  0.9024
 1004SOL     MW 4016   4.726   1.663   2.671  0.2265  0.3911  0.2071
 1005SOL     OW 4017   2.816   4.108   4.169 -0.4778 -0.6900  0.1205
 1005SOL    HW1 4018   2.869   4.106   4.089 -0.6875 -1.4775 -0.0103
 1005SOL    HW2 4019   2.869   4.157   4.232 -1.2632  1.9953 -1.1345
 1005SOL     MW 4020   2.830   4.114   4.166 -0.6052 -0.4471 -0.0569
 1006SOL     OW 4021   5.102   5.247   1.739 -0.1369  0.2157  0.0284
 1006SOL    HW1 4022   5.134   5.337   1.753  0.8143 -0.3243  1.6878
 1006SOL    HW2 4023   5.162   5.210   1.675  0.0195  0.5016  0.0084
 1006SOL     MW 4024   5.114   5.254   1.733  0.0049  0.1832  0.2382
 1007SOL     OW 4025   1.073   2.130   2.911  0.3685  0.1799  0.1339
 1007SOL    HW1 4026   1.160   2.126   2.950  1.1049 -0.4120 -1.4705
 1007SOL    HW2 4027   1.081   2.079   2.830 -1.4524  0.1849 -0.0896
 1007SOL     MW 4028   1.085   2.123   2.905  0.2296  0.1048 -0.1001
 1008SOL     OW 4029   0.710   1.286   1.718 -0.1193  0.3296  0.3918
 1008SOL    HW1 4030   0.717   1.252   1.629  0.7497  0.9288  0.2221
 1008SOL    HW2 4031   0.761   1.225   1.771  0.2724  0.5735  0.3024
 1008SOL     MW 4032   0.717   1.274   1.713  0.0421  0.4376  0.3586
 1009SOL     OW 4033   1.652   0.883   5.154 -0.4977 -0.0540 -0.5209
 1009SOL    HW1 4034   1.701   0.929   5.222 -0.0538 -1.0376 -0.1607
 1009SOL    HW2 4035   1.682   0.793   5.160  0.1163 -0.0330 -2.5158
 1009SOL     MW 4036   1.662   0.878   5.164 -0.3623 -0.1772 -0.7302
 1010SOL     OW 4037   4.821   0.457   1.629  0.2739 -0.5912  0.2932
 1010SOL    HW1 4038   4.845   0.484   1.540  1.7845 -4.1008 -0.5427
 1010SOL    HW2 4039   4.726   0.464   1.631  0.2987  0.6904 -1.1738
 1010SOL     MW 4040   4.812   0.461   1.618  0.4705 -0.8764 -0.0016
 1011SOL     OW 4041   3.613   2.158   2.907  0.7243 -0.3188  0.1715
 1011SOL    HW1 4042   3.637   2.187   2.819  0.6571 -1.0809 -0.1085
 1011SOL    HW2 4043   3.518   2.155   2.907  0.7407 -1.1709 -0.0270
 1011SOL     MW 4044   3.604   2.161   2.896  0.7178 -0.5254  0.1103
 1012SOL     OW 4045   1.657   0.915   0.710  0.4548 -0.1371 -0.1027
 1012SOL    HW1 4046   1.739   0.868   0.725 -0.0319 -0.7333  0.7867
 1012SOL    HW2 4047   1.629   0.944   0.798  0.0251  0.5897 -0.4653
 1012SOL     MW 4048   1.664   0.913   0.723  0.3375 -0.1204 -0.0353
 1013SOL     OW 4049   2.480   1.657   4.187 -0.7581 -0.1676  0.0408
 1013SOL    HW1 4050   2.392   1.621   4.201 -1.0042  0.3233 -0.2354
 1013SOL    HW2 4051   2.466   1.734   4.131 -0.4854  1.5346  2.1684
 1013SOL     MW 4052   2.467   1.662   4.182 -0.7547  0.1131  0.2778
 1014SOL     OW 4053   5.390   4.497   1.074  0.1682 -0.3226  0.5750
 1014SOL    HW1 4054   5.479   4.462   1.066 -0.0127 -1.0058  1.3545
 1014SOL    HW2 4055   5.383   4.561   1.004  1.5198  0.2666  0.9261
 1014SOL     MW 4056   5.401   4.501   1.064  0.3180 -0.3346  0.7197
 1015SOL     OW 4057   0.379   2.024   3.209 -0.2364 -0.1918  0.5614
 1015SOL    HW1 4058   0.309   1.959   3.200 -0.9263  0.6468 -0.4263
 1015SOL    HW2 4059   0.371   2.078   3.130  1.5192 -0.0562  0.4487
 1015SOL     MW 4060   0.369   2.023   3.198 -0.1000 -0.0671  0.4205
 1016SOL     OW 4061   0.536   3.897   4.328 -0.1092  0.8517  1.1090
 1016SOL    HW1 4062   0.516   3.920   4.419 -1.0137  0.7025  0.9652
 1016SOL    HW2 4063   0.513   3.805   4.322  2.1263  0.2345  1.3051
 1016SOL     MW 4064   0.530   3.888   4.339  0.0612  0.7536  1.1157
 1017SOL     OW 4065   1.149   0.080   4.193  0.2141 -0.3067  0.3622
 1017SOL    HW1 4066   1.103  -0.001   4.215  0.6029 -1.2468 -2.0669
 1017SOL    HW2 4067   1.080   0.139   4.162 -0.0451  0.3239  1.9826
 1017SOL     MW 4068   1.134   0.077   4.192  0.2307 -0.3463  0.2587
 1018SOL     OW 4069   5.151   4.315   0.528  0.2428  0.0399  0.0269
 1018SOL    HW1 4070   5.140   4.345   0.438  0.0600  0.7410  0.2748
 1018SOL    HW2 4071   5.065   4.282   0.553  0.3412 -0.3239 -0.1153
 1018SOL     MW 4072   5.138   4.315   0.520  0.2320  0.0830  0.0404
 1019SOL     OW 4073   4.851   4.766   0.098 -0.0009 -0.1678 -0.0288
 1019SOL    HW1 4074   4.823   4.855   0.074 -1.0760 -0.8106 -1.2666
 1019SOL    HW2 4075   4.944   4.764   0.075  0.1453  0.7693  0.4148
 1019SOL     MW 4076   4.859   4.777   0.092 -0.1198 -0.1301 -0.1305
 1020SOL     OW 4077   4.823   0.981   1.031  0.1231 -0.3807 -0.4357
 1020SOL    HW1 4078   4.793   0.950   0.946  0.7430  0.2153 -0.8841
 1020SOL    HW2 4079   4.839   0.902   1.082 -2.3038 -0.7311 -0.1183
 1020SOL     MW 4080   4.821   0.967   1.027 -0.1082 -0.3492 -0.4525
 1021SOL     OW 4081   3.570   3.561   3.067  0.2344  0.1445  0.1531
 1021SOL    HW1 4082   3.602   3.494   3.126 -0.5951 -0.5589 -0.1763
 1021SOL    HW2 4083   3.646   3.586   3.014  0.7910  0.2251  0.9805
 1021SOL     MW 4084   3.584   3.556   3.068  0.1995  0.0648  0.2168
 1022SOL     OW 4085   2.382   0.597   0.069 -0.6840 -0.4242  0.6910
 1022SOL    HW1 4086   2.432   0.657   0.014  0.6627 -2.0870  0.0162
 1022SOL    HW2 4087   2.445   0.531   0.097 -1.8997 -1.0196  2.1908
 1022SOL     MW 4088   2.396   0.596   0.065 -0.6672 -0.7133  0.7966
 1023SOL     OW 4089   5.247   2.585   3.335 -0.2429  0.2933  0.1477
 1023SOL    HW1 4090   5.209   2.513   3.384 -1.2958 -0.4597 -1.6724
 1023SOL    HW2 4091   5.202   2.583   3.250 -0.2278  3.0130 -0.0290
 1023SOL     MW 4092   5.236   2.576   3.331 -0.3758  0.5451 -0.1079
 1024SOL     OW 4093   2.810   3.421   2.718 -0.0303 -0.0263 -0.0787
 1024SOL    HW1 4094   2.849   3.389   2.799 -0.6221  0.5408  0.4399
 1024SOL    HW2 4095   2.723   3.381   2.716 -0.5903  1.1108  0.3297
 1024SOL     MW 4096   2.804   3.412   2.728 -0.1778  0.1919  0.0400
 1025SOL     OW 4097   0.763   0.396   0.377 -0.4690 -0.1148 -0.1736
 1025SOL    HW1 4098   0.729   0.310   0.402 -1.3565  0.5207  0.8845
 1025SOL    HW2 4099   0.854   0.395   0.405 -0.6516 -0.4820  0.4204
 1025SOL     MW 4100   0.770   0.385   0.384 -0.6060 -0.0804  0.0379
 1026SOL     OW 4101   2.441   0.214   1.291 -0.3059 -0.0937 -0.0168
 1026SOL    HW1 4102   2.354   0.192   1.256  0.2994 -1.0966 -0.9419
 1026SOL    HW2 4103   2.466   0.294   1.243 -0.6723  0.1549  0.1956
 1026SOL     MW 4104   2.433   0.222   1.280 -0.2754 -0.1903 -0.1080
 1027SOL     OW 4105   0.446   1.856   2.176 -0.1495 -0.7261  0.4496
 1027SOL    HW1 4106   0.457   1.799   2.252  1.0392 -0.9368  0.1468
 1027SOL    HW2 4107   0.404   1.801   2.110  0.2221 -1.0053  0.4424
 1027SOL     MW 4108   0.442   1.842   2.177  0.0503 -0.7888  0.4100
 1028SOL     OW 4109   2.654   1.502   0.050 -0.2795 -0.4161  0.0382
 1028SOL    HW1 4110   2.593   1.429   0.065  1.6186 -1.7400  1.9051
 1028SOL    HW2 4111   2.740   1.461   0.047  0.6237  1.4413 -2.1023
 1028SOL     MW 4112   2.657   1.487   0.052  0.0791 -0.3478  0.0032
 1029SOL     OW 4113   2.853   4.563   4.615 -0.1501  0.7389  0.0305
 1029SOL    HW1 4114   2.914   4.616   4.667 -0.0309  0.6239  0.0093
 1029SOL    HW2 4115   2.786   4.625   4.586 -0.1587  0.8248  0.2303
 1029SOL     MW 4116   2.852   4.578   4.618 -0.1359  0.7351  0.0534
 1030SOL     OW 4117   4.262   3.528   2.667 -0.0382 -0.2700 -0.3221
 1030SOL    HW1 4118   4.266   3.593   2.737 -0.6685 -0.9875  0.4122
 1030SOL    HW2 4119   4.346   3.536   2.621  0.3138  0.3440  0.4091
 1030SOL     MW 4120   4.273   3.537   2.670 -0.0738 -0.2833 -0.1345
 1031SOL     OW 4121   2.473   1.004   3.401  1.1087 -0.2838 -0.1776
 1031SOL    HW1 4122   2.415   0.939   3.439  0.3605  0.1215 -0.6142
 1031SOL    HW2 4123   2.539   0.953   3.354  1.6155 -0.7692  1.0178
 1031SOL     MW 4124   2.474   0.989   3.400  1.0778 -0.2941 -0.0804
 1032SOL     OW 4125   2.082   1.109   5.250 -0.6473 -0.1622  0.3104
 1032SOL    HW1 4126   2.146   1.038   5.256 -0.0244  0.3693  0.0794
 1032SOL    HW2 4127   2.081   1.133   5.158  0.7398  1.5390  0.6943
 1032SOL     MW 4128   2.090   1.103   5.239 -0.3900  0.1236  0.3300
 1033SOL     OW 4129   4.925   4.264   5.163  0.2594 -0.4980  0.1439
 1033SOL    HW1 4130   4.967   4.270   5.078  0.4863 -1.9352  0.1338
 1033SOL    HW2 4131   4.902   4.171   5.173  0.6969 -0.4637  1.8452
 1033SOL     MW 4132   4.928   4.253   5.154  0.3445 -0.6776  0.3604
 1034SOL     OW 4133   1.126   3.952   3.431  0.3965  0.0576  0.3602
 1034SOL    HW1 4134   1.163   3.935   3.518 -0.0645  0.2580  0.6010
 1034SOL    HW2 4135   1.031   3.945   3.444  0.2712  1.1739  0.1149
 1034SOL     MW 4136   1.118   3.949   3.444  0.3215  0.2262  0.3596
 1035SOL     OW 4137   1.623   4.528   3.205 -0.2260 -0.0579 -0.6573
 1035SOL    HW1 4138   1.701   4.542   3.151  0.0654 -0.6475 -0.3993
 1035SOL    HW2 4139   1.653   4.541   3.295 -0.4276 -0.2682 -0.5572
 1035SOL     MW 4140   1.637   4.531   3.210 -0.2145 -0.1603 -0.6115
 1036SOL     OW 4141   3.416   0.791   3.119  0.4035  0.0988 -0.4995
 1036SOL    HW1 4142   3.442   0.881   3.103  1.2132  0.0438  0.4060
 1036SOL    HW2 4143   3.492   0.739   3.091  1.5120 -0.0484  2.4062
 1036SOL     MW 4144   3.429   0.796   3.113  0.6491  0.0729 -0.0116
 1037SOL     OW 4145   3.093   0.279   2.175 -0.4107 -0.6525  0.6993
 1037SOL    HW1 4146   3.067   0.217   2.106  1.5111 -0.5617 -0.1520
 1037SOL    HW2 4147   3.095   0.364   2.132  0.3902 -0.5295  0.9630
 1037SOL     MW 4148   3.090   0.282   2.161 -0.0621 -0.6251  0.6241
 1038SOL     OW 4149   2.328   2.326   3.990 -0.2116 -1.0214 -0.0151
 1038SOL    HW1 4150   2.300   2.279   4.069 -0.9444 -1.4349 -0.5158
 1038SOL    HW2 4151   2.251   2.376   3.963 -0.1415 -1.3245 -0.7938
 1038SOL     MW 4152   2.314   2.327   3.997 -0.2964 -1.1131 -0.1789
 1039SOL     OW 4153   1.182   1.501   1.001 -0.3224 -0.4360 -0.6923
 1039SOL    HW1 4154   1.153   1.577   0.951 -2.2314 -0.9177 -0.3938
 1039SOL    HW2 4155   1.189   1.533   1.091 -2.0279 -0.7954 -0.4066
 1039SOL     MW 4156   1.179   1.515   1.006 -0.7851 -0.5437 -0.6175
 1040SOL     OW 4157   1.077   1.171   3.053  0.3915  0.3992  0.2770
 1040SOL    HW1 4158   0.983   1.170   3.033  0.4817  2.0521 -0.3511
 1040SOL    HW2 4159   1.084   1.232   3.127  1.1242  1.4209 -0.6142
 1040SOL     MW 4160   1.066   1.178   3.060  0.4968  0.7416  0.0825
 1041SOL     OW 4161   1.972   3.560   4.164 -0.3642  0.2006 -0.0526
 1041SOL    HW1 4162   2.067   3.542   4.164 -0.3242  0.3425 -1.2154
 1041SOL    HW2 4163   1.955   3.595   4.251  0.8437  1.1191 -0.1560
 1041SOL     MW 4164   1.982   3.562   4.175 -0.2044  0.3363 -0.2147
 1042SOL     OW 4165   2.065   1.449   4.073 -0.7714 -0.4186 -0.1017
 1042SOL    HW1 4166   2.119   1.449   3.994 -3.3497 -0.7057 -1.9630
 1042SOL    HW2 4167   2.040   1.357   4.085  0.6367 -0.6343  1.9364
 1042SOL     MW 4168   2.069   1.437   4.065 -0.9212 -0.4829 -0.0791
 1043SOL     OW 4169   3.102   3.679   1.057  0.4272 -0.1840  0.3480
 1043SOL    HW1 4170   3.158   3.751   1.085  0.2192 -0.1359  0.6424
 1043SOL    HW2 4171   3.036   3.721   1.001 -0.3344  0.0275  1.3773
 1043SOL     MW 4172   3.101   3.694   1.053  0.3031 -0.1507  0.5175
 1044SOL     OW 4173   3.646   4.113   0.136  0.2715  0.1237  0.4560
 1044SOL    HW1 4174   3.648   4.168   0.057 -0.8533  0.1687  0.4534
 1044SOL    HW2 4175   3.578   4.152   0.191 -2.0645 -2.4368 -0.4205
 1044SOL     MW 4176   3.638   4.125   0.133 -0.1716 -0.1983  0.3435
 1045SOL     OW 4177   1.395   3.237   2.675 -0.7122 -0.3104 -0.5289
 1045SOL    HW1 4178   1.454   3.184   2.729  0.5191  1.6740  0.1713
 1045SOL    HW2 4179   1.416   3.213   2.585  0.9065  0.0521 -0.2791
 1045SOL     MW 4180   1.405   3.227   2.671 -0.3473 -0.0100 -0.4073
 1046SOL     OW 4181   3.434   0.006   2.982 -0.0410  0.1760  0.1162
 1046SOL    HW1 4182   3.375   0.074   2.950 -0.2455 -0.2956 -0.5146
 1046SOL    HW2 4183   3.406  -0.074   2.938  0.7309 -0.1627  0.2137
 1046SOL     MW 4184   3.423   0.005   2.973  0.0317  0.0723  0.0480
 1047SOL     OW 4185   2.462   1.872   3.621 -0.4514  0.6224 -0.7589
 1047SOL    HW1 4186   2.547   1.842   3.655 -0.2617  1.4633 -0.4811
 1047SOL    HW2 4187   2.444   1.812   3.548 -1.4991 -2.1047  1.5289
 1047SOL     MW 4188   2.471   1.860   3.616 -0.5612  0.3810 -0.4304
 1048SOL     OW 4189   1.193   3.828   4.741  0.0183  0.3891  0.2529
 1048SOL    HW1 4190   1.285   3.852   4.736  0.0385  0.0634 -1.4874
 1048SOL    HW2 4191   1.171   3.837   4.834  2.0821 -0.5989  0.8952
 1048SOL     MW 4192   1.202   3.832   4.752  0.2851  0.2209  0.1123
 1049SOL     OW 4193   4.831   3.634   0.021  0.1393 -0.4244  0.6389
 1049SOL    HW1 4194   4.744   3.611  -0.011 -0.5623  2.2332  0.4050
 1049SOL    HW2 4195   4.824   3.726   0.047  3.0423  0.0916 -0.0357
 1049SOL     MW 4196   4.819   3.643   0.020  0.4211 -0.0181  0.5226
 1050SOL     OW 4197   0.446   0.882   5.475  0.0719  0.0633  0.1479
 1050SOL    HW1 4198   0.458   0.919   5.388  1.3214  0.8774  0.6326
 1050SOL    HW2 4199   0.410   0.953   5.527 -1.1381 -0.5651  0.2036
 1050SOL     MW 4200   0.443   0.896   5.471  0.0770  0.0871  0.2171
 1051SOL     OW 4201   0.723   5.133   2.147  0.3622  0.1936 -0.2456
 1051SOL    HW1 4202   0.761   5.221   2.147  1.3548 -0.2227 -0.1820
 1051SOL    HW2 4203   0.788   5.079   2.102  0.0025 -0.6078  0.1806
 1051SOL     MW 4204   0.736   5.137   2.142  0.4433  0.0377 -0.1829
 1052SOL     OW 4205   4.621   3.359   3.380  0.6159  0.4683 -0.1462
 1052SOL    HW1 4206   4.708   3.321   3.371  0.2850 -0.9004  1.8358
 1052SOL    HW2 4207   4.616   3.389   3.471  0.1312  3.5613 -1.0731
 1052SOL     MW 4208   4.631   3.358   3.390  0.5115  0.6890 -0.0111
 1053SOL     OW 4209   3.574   4.265   1.508 -0.1820  0.0158 -0.3628
 1053SOL    HW1 4210   3.611   4.330   1.447 -0.6659  1.3748  0.7401
 1053SOL    HW2 4211   3.596   4.298   1.595  2.4981 -3.0583  0.3108
 1053SOL     MW 4212   3.581   4.278   1.511  0.0991 -0.2038 -0.1354
 1054SOL     OW 4213   0.990   3.257   2.964  0.1635  0.4386 -0.2426
 1054SOL    HW1 4214   0.907   3.228   2.927 -0.9369 -1.1188  3.0620
 1054SOL    HW2 4215   1.053   3.189   2.940  0.4063  1.3033 -2.2172
 1054SOL     MW 4216   0.987   3.245   2.956  0.0537  0.3499 -0.0723
 1055SOL     OW 4217   2.478   1.129   1.763 -0.4121  0.7632 -0.3208
 1055SOL    HW1 4218   2.415   1.070   1.719  1.1524 -1.4989  0.3042
 1055SOL    HW2 4219   2.465   1.213   1.720 -1.5437 -0.4430 -2.5409
 1055SOL     MW 4220   2.468   1.132   1.752 -0.3567  0.3192 -0.5250
 1056SOL     OW 4221   5.218   2.129   5.042  0.8517 -0.1081 -0.2585
 1056SOL    HW1 4222   5.165   2.060   5.003  1.4753 -0.0578 -1.2126
 1056SOL    HW2 4223   5.228   2.194   4.973 -1.1930  1.8438  1.1328
 1056SOL     MW 4224   5.212   2.128   5.028  0.6697  0.1482 -0.2025
 1057SOL     OW 4225   0.009   2.648   5.306 -0.4688  0.0678 -0.2044
 1057SOL    HW1 4226  -0.001   2.672   5.398 -0.4865  2.1311 -0.6891
 1057SOL    HW2 4227   0.068   2.573   5.307  0.5123  0.8035  1.4322
 1057SOL     MW 4228   0.015   2.641   5.317 -0.3455  0.4261 -0.0569
 1058SOL     OW 4229   0.583   3.181   3.388 -0.1004  0.1606 -0.0783
 1058SOL    HW1 4230   0.493   3.149   3.384 -0.4508  1.0264  0.5612
 1058SOL    HW2 4231   0.576   3.275   3.373  0.7430  0.1757 -0.4236
 1058SOL     MW 4232   0.571   3.189   3.386 -0.0373  0.2733 -0.0406
 1059SOL     OW 4233   3.654   5.465   4.636  0.7043 -0.0367  0.0896
 1059SOL    HW1 4234   3.627   5.374   4.620 -1.1831  0.7594 -1.6862
 1059SOL    HW2 4235   3.681   5.465   4.728 -0.3991 -2.1402  0.4933
 1059SOL     MW 4236   3.654   5.453   4.646  0.3214 -0.2041 -0.0860
 1060SOL     OW 4237   5.424   3.343   3.904 -0.4702  0.2385  0.1859
 1060SOL    HW1 4238   5.330   3.329   3.903 -0.2985 -1.1117  0.9467
 1060SOL    HW2 4239   5.453   3.310   3.989  0.5557  1.6422  0.4226
 1060SOL     MW 4240   5.416   3.337   3.915 -0.3169  0.2454  0.3136
 1061SOL     OW 4241   2.114   3.729   0.557  0.2640  0.0262 -0.0631
 1061SOL    HW1 4242   2.065   3.801   0.597  1.6440 -0.0006  1.8452
 1061SOL    HW2 4243   2.050   3.682   0.504 -1.2272  1.2434  0.5744
 1061SOL     MW 4244   2.100   3.732   0.556  0.2498  0.1786  0.2628
 1062SOL     OW 4245   0.121   3.044   1.118 -0.4241  0.0312  0.4038
 1062SOL    HW1 4246   0.073   3.117   1.077  0.6305  0.0644 -0.8656
 1062SOL    HW2 4247   0.205   3.082   1.142  0.4598 -0.9171 -1.0230
 1062SOL     MW 4248   0.126   3.059   1.116 -0.1759 -0.0859  0.0587
 1063SOL     OW 4249   3.749   3.225   0.981 -0.0408  0.1652 -0.1361
 1063SOL    HW1 4250   3.767   3.131   0.984 -0.3892  0.0640 -1.0153
 1063SOL    HW2 4251   3.720   3.247   1.069  0.6108 -0.4368  0.2358
 1063SOL     MW 4252   3.748   3.216   0.992 -0.0020  0.0752 -0.2010
 1064SOL     OW 4253   2.078   3.993   3.270  0.0489 -0.4786  0.2959
 1064SOL    HW1 4254   2.058   3.915   3.323  0.2807 -0.8373 -0.1412
 1064SOL    HW2 4255   2.124   3.959   3.194  0.1246  0.0890  0.0855
 1064SOL     MW 4256   2.081   3.979   3.267  0.0883 -0.4518  0.2130
 1065SOL     OW 4257   2.351   0.237   4.608  0.1071  0.4029 -0.2844
 1065SOL    HW1 4258   2.399   0.312   4.642  2.8462 -1.2035 -0.2609
 1065SOL    HW2 4259   2.381   0.228   4.517  0.8953 -1.3529  0.0910
 1065SOL     MW 4260   2.361   0.245   4.600  0.5587 -0.0275 -0.2333
 1066SOL     OW 4261   3.159   4.756   5.336  0.0935  0.6268  0.3308
 1066SOL    HW1 4262   3.240   4.706   5.334  0.7369  1.6634 -0.4501
 1066SOL    HW2 4263   3.130   4.752   5.428  0.6482 -0.3281  0.4659
 1066SOL     MW 4264   3.165   4.749   5.348  0.2469  0.6373  0.2481
 1067SOL     OW 4265   0.285   3.065   5.242  0.1182 -0.2962 -0.2367
 1067SOL    HW1 4266   0.212   3.127   5.246  2.8422  3.1771  1.1807
 1067SOL    HW2 4267   0.313   3.067   5.151  1.4420  2.4178  0.1286
 1067SOL     MW 4268   0.279   3.073   5.231  0.6364  0.4959 -0.0085
 1068SOL     OW 4269   5.016   0.541   3.117  0.0429 -0.8341  0.3059
 1068SOL    HW1 4270   5.025   0.527   3.212  0.8810 -0.0008  0.3626
 1068SOL    HW2 4271   5.023   0.453   3.080  1.0031 -1.0419  0.9307
 1068SOL     MW 4272   5.018   0.528   3.125  0.2731 -0.7540  0.3931
 1069SOL     OW 4273   4.995   4.117   3.464  0.5109 -0.2656  0.2311
 1069SOL    HW1 4274   5.083   4.081   3.464  0.3052 -0.8012  1.1356
 1069SOL    HW2 4275   4.962   4.100   3.552 -0.2502  0.5321  0.1187
 1069SOL     MW 4276   5.002   4.111   3.475  0.3872 -0.2320  0.3325
 1070SOL     OW 4277   4.780   0.813   4.167  0.1992 -0.4041  0.1016
 1070SOL    HW1 4278   4.745   0.774   4.248 -0.3131 -0.3361 -0.0831
 1070SOL    HW2 4279   4.737   0.898   4.161 -1.8324 -1.4515 -1.5931
 1070SOL     MW 4280   4.770   0.819   4.177 -0.1265 -0.5295 -0.1390
 1071SOL     OW 4281   3.796   4.684   4.293 -0.2286 -0.4248 -0.2121
 1071SOL    HW1 4282   3.787   4.761   4.236  0.9775 -1.9625 -2.6492
 1071SOL    HW2 4283   3.808   4.721   4.380  0.4737  2.1785 -1.2938
 1071SOL     MW 4284   3.797   4.699   4.297  0.0157 -0.2884 -0.6625
 1072SOL     OW 4285   2.766   0.995   3.618 -0.0122  0.6622  0.2721
 1072SOL    HW1 4286   2.744   1.088   3.609  1.3816  1.1739  1.6532
 1072SOL    HW2 4287   2.797   0.970   3.531 -1.0211  1.2985 -0.2940
 1072SOL     MW 4288   2.767   1.004   3.606  0.0371  0.8091  0.3765
 1073SOL     OW 4289   4.036   1.331   0.346 -0.2909 -0.0224 -0.5496
 1073SOL    HW1 4290   4.117   1.299   0.385 -0.5822  0.1672  0.2250
 1073SOL    HW2 4291   3.969   1.269   0.374 -0.5868  0.3779 -0.3555
 1073SOL     MW 4292   4.038   1.319   0.354 -0.3661  0.0532 -0.4256
 1074SOL     OW 4293   1.313   1.600   4.433 -0.3212 -0.4247 -0.5938
 1074SOL    HW1 4294   1.328   1.506   4.422  0.7245 -0.5725  1.5375
 1074SOL    HW2 4295   1.320   1.614   4.527  1.4135  2.0739 -1.0062
 1074SOL     MW 4296   1.316   1.590   4.444  0.0347 -0.1238 -0.3737
 1075SOL     OW 4297   0.540   2.887   1.745  0.1586 -0.2278 -0.5408
 1075SOL    HW1 4298   0.598   2.961   1.730 -0.4320  0.3535  0.0348
 1075SOL    HW2 4299   0.545   2.836   1.663  2.0055 -0.5779 -0.2691
 1075SOL     MW 4300   0.548   2.890   1.733  0.3194 -0.1982 -0.4323
 1076SOL     OW 4301   2.407   3.804   0.084 -0.7994  0.1527 -0.4094
 1076SOL    HW1 4302   2.315   3.804   0.107 -0.6938  0.1314  0.0130
 1076SOL    HW2 4303   2.422   3.889   0.042 -0.8940  0.3633 -0.0142
 1076SOL     MW 4304   2.397   3.815   0.081 -0.7980  0.1769 -0.3047
 1077SOL     OW 4305   2.151   1.123   4.958 -0.3437 -0.1019 -0.1814
 1077SOL    HW1 4306   2.201   1.056   4.911  0.6813  1.2026 -1.0374
 1077SOL    HW2 4307   2.195   1.205   4.936  0.3216  0.6120  3.2385
 1077SOL     MW 4308   2.163   1.125   4.949 -0.1273  0.1565  0.1468
 1078SOL     OW 4309   1.435   2.532   4.881  0.6562  0.1083  0.2512
 1078SOL    HW1 4310   1.474   2.541   4.968  0.4884 -1.5153  0.5194
 1078SOL    HW2 4311   1.485   2.463   4.839 -0.8026 -0.8268 -0.0297
 1078SOL     MW 4312   1.446   2.524   4.887  0.4480 -0.2192  0.2496
 1079SOL     OW 4313  -0.001   0.199   2.540 -0.0493 -0.0156 -0.2514
 1079SOL    HW1 4314   0.053   0.251   2.599  0.6164 -1.0609  0.0686
 1079SOL    HW2 4315   0.058   0.173   2.469 -0.0143 -1.4666  0.2821
 1079SOL     MW 4316   0.013   0.203   2.538  0.0404 -0.3351 -0.1422
 1080SOL     OW 4317   0.769   5.035   4.877 -0.4831 -0.1823  0.0362
 1080SOL    HW1 4318   0.740   4.953   4.836 -0.9773  0.6796 -1.4404
 1080SOL    HW2 4319   0.688   5.085   4.889 -0.1050  0.3969  0.1901
 1080SOL     MW 4320   0.755   5.031   4.873 -0.4979  0.0022 -0.1331
 1081SOL     OW 4321   4.518   0.494   2.903  0.5503 -0.3972 -0.3475
 1081SOL    HW1 4322   4.511   0.550   2.981  0.5856  0.8654 -1.2167
 1081SOL    HW2 4323   4.562   0.415   2.934  1.1298  0.3417  0.7931
 1081SOL     MW 4324   4.523   0.491   2.917  0.6290 -0.1410 -0.3127
 1082SOL     OW 4325   2.556   5.112   0.647  0.0685  0.5186  0.2235
 1082SOL    HW1 4326   2.585   5.036   0.595  1.0237  0.5333  0.7212
 1082SOL    HW2 4327   2.556   5.185   0.585  3.2376  0.9956  0.6317
 1082SOL     MW 4328   2.559   5.111   0.632  0.5965  0.5816  0.3395
 1083SOL     OW 4329   4.945   2.188   5.199  0.3045 -0.2311 -0.6573
 1083SOL    HW1 4330   5.024   2.142   5.225  0.5087  0.5506  0.1672
 1083SOL    HW2 4331   4.893   2.195   5.279 -1.5653 -2.4985 -1.5608
 1083SOL     MW 4332   4.948   2.183   5.212  0.0913 -0.4213 -0.6674
 1084SOL     OW 4333   2.727   4.297   3.047  0.5188 -0.1927 -0.4371
 1084SOL    HW1 4334   2.810   4.331   3.014  0.1568  0.6848 -0.4607
 1084SOL    HW2 4335   2.734   4.202   3.034  2.0044 -0.2698  0.6973
 1084SOL     MW 4336   2.739   4.289   3.041  0.6626 -0.0902 -0.2949
 1085SOL     OW 4337   4.190   3.402   3.362 -0.5835 -0.4541 -0.3523
 1085SOL    HW1 4338   4.184   3.388   3.456 -0.1617 -0.7769 -0.3676
 1085SOL    HW2 4339   4.262   3.345   3.334 -0.5130 -0.1440 -0.8211
 1085SOL     MW 4340   4.199   3.393   3.370 -0.5205 -0.4557 -0.4143
 1086SOL     OW 4341   3.096   3.506   4.281 -0.0874 -0.2724  0.0845
 1086SOL    HW1 4342   3.027   3.494   4.346 -1.2616 -1.2493 -1.2851
 1086SOL    HW2 4343   3.058   3.564   4.215  0.3617 -0.8331 -0.6971
 1086SOL     MW 4344   3.082   3.512   4.281 -0.1802 -0.4692 -0.1909
 1087SOL     OW 4345   5.234   2.046   1.206 -0.1092  0.3784  0.0561
 1087SOL    HW1 4346   5.308   2.107   1.202 -0.0689  0.2755 -1.9178
 1087SOL    HW2 4347   5.161   2.099   1.237 -0.1315  1.5758 -1.8466
 1087SOL     MW 4348   5.234   2.061   1.209 -0.1069  0.5185 -0.4401
 1088SOL     OW 4349   3.929   0.079   3.889  0.5458  0.1442  0.0455
 1088SOL    HW1 4350   3.908   0.166   3.856  0.2672 -0.0765 -0.3648
 1088SOL    HW2 4351   3.923   0.022   3.812 -1.0088 -0.5301  0.6250
 1088SOL     MW 4352   3.925   0.082   3.875  0.3112  0.0296  0.0671
 1089SOL     OW 4353   3.267   4.059   3.759 -0.0168 -0.2850  0.9530
 1089SOL    HW1 4354   3.207   4.078   3.831 -0.0907  1.6819  0.4339
 1089SOL    HW2 4355   3.336   4.125   3.768 -0.3403  0.4043 -1.0858
 1089SOL     MW 4356   3.268   4.070   3.769 -0.0677  0.0550  0.6256
 1090SOL     OW 4357   5.395   5.311   0.491 -0.4696  0.0437  0.3099
 1090SOL    HW1 4358   5.419   5.401   0.471 -1.5616  0.4193  0.6274
 1090SOL    HW2 4359   5.394   5.266   0.406  1.3719 -0.0171  0.2903
 1090SOL     MW 4360   5.398   5.317   0.478 -0.3736  0.0840  0.3481
 1091SOL     OW 4361   1.511   1.999   3.672  0.0492  0.0167  0.0620
 1091SOL    HW1 4362   1.544   1.999   3.582 -2.0456 -4.6243 -0.9767
 1091SOL    HW2 4363   1.549   1.920   3.711 -1.7704  0.0562  2.0853
 1091SOL     MW 4364   1.520   1.989   3.665 -0.4519 -0.5723  0.1881
 1092SOL     OW 4365   4.842   3.075   0.291  0.4137  0.0117 -0.0372
 1092SOL    HW1 4366   4.828   2.999   0.234 -2.0777 -0.0674  0.5255
 1092SOL    HW2 4367   4.918   3.052   0.344  0.5316 -1.5105 -0.8102
 1092SOL     MW 4368   4.850   3.062   0.290  0.1099 -0.1933 -0.0642
 1093SOL     OW 4369   2.154   2.851   1.576 -0.0303 -0.1515  0.4015
 1093SOL    HW1 4370   2.125   2.939   1.552 -2.1953 -0.8253  0.3763
 1093SOL    HW2 4371   2.217   2.866   1.647 -1.3914  1.3708  1.3680
 1093SOL     MW 4372   2.159   2.864   1.582 -0.4817 -0.0429  0.5220
 1094SOL     OW 4373   2.958   5.300   4.299 -0.2303 -0.0228 -0.5242
 1094SOL    HW1 4374   2.964   5.340   4.212  0.3988  0.9555 -0.0492
 1094SOL    HW2 4375   2.952   5.374   4.359 -0.3500 -0.6845  0.2930
 1094SOL     MW 4376   2.958   5.314   4.295 -0.1651  0.0177 -0.3588
 1095SOL     OW 4377   3.091   3.727   3.356  0.2574  0.0734  0.3912
 1095SOL    HW1 4378   3.052   3.814   3.344 -0.6235 -0.4326 -0.5908
 1095SOL    HW2 4379   3.170   3.743   3.408 -0.5857  1.2908  1.3545
 1095SOL     MW 4380   3.096   3.740   3.361  0.0367  0.1645  0.3888
 1096SOL     OW 4381   3.992   2.518   4.441 -0.5461 -0.2379 -0.0628
 1096SOL    HW1 4382   4.003   2.424   4.457  0.5095  0.0719  1.1297
 1096SOL    HW2 4383   4.073   2.545   4.397 -0.7432  0.1705 -0.1807
 1096SOL     MW 4384   4.004   2.510   4.437 -0.4362 -0.1460  0.0748
 1097SOL     OW 4385   2.454   2.910   5.014  0.0361  0.1987 -0.3427
 1097SOL    HW1 4386   2.406   2.962   4.950 -0.0251 -0.4503 -0.8396
 1097SOL    HW2 4387   2.435   2.951   5.098 -1.1248  0.1503 -0.5677
 1097SOL     MW 4388   2.446   2.922   5.017 -0.1204  0.1094 -0.4351
 1098SOL     OW 4389   0.361   2.367   1.954 -0.1074  1.0650  0.3165
 1098SOL    HW1 4390   0.314   2.355   1.871  0.2817 -0.3033  0.2576
 1098SOL    HW2 4391   0.453   2.374   1.929  0.1012 -0.1395  0.6429
 1098SOL     MW 4392   0.367   2.366   1.940 -0.0309  0.7356  0.3508
 1099SOL     OW 4393   1.579   2.019   3.153  0.2007 -0.0220 -0.7826
 1099SOL    HW1 4394   1.534   1.968   3.085  0.3851 -0.1177 -0.8352
 1099SOL    HW2 4395   1.584   2.108   3.117  0.9117 -0.2211 -1.1995
 1099SOL     MW 4396   1.574   2.024   3.140  0.3153 -0.0598 -0.8427
 1100SOL     OW 4397   1.816   2.515   4.486  0.9949 -0.9164  0.1571
 1100SOL    HW1 4398   1.722   2.533   4.483  0.8879 -0.9634  2.0795
 1100SOL    HW2 4399   1.856   2.589   4.441  0.0401 -1.0542 -0.9816
 1100SOL     MW 4400   1.809   2.526   4.480  0.8590 -0.9401  0.2575
 1101SOL     OW 4401   1.108   3.570   4.804  0.1911  0.1430 -0.1097
 1101SOL    HW1 4402   1.016   3.542   4.799  0.6674 -1.6264  0.2232
 1101SOL    HW2 4403   1.111   3.653   4.756 -1.9823  1.3929  1.7202
 1101SOL     MW 4404   1.097   3.577   4.797 -0.0261  0.0765  0.1671
 1102SOL     OW 4405   1.535   2.297   4.746  0.0839 -0.4108  0.4062
 1102SOL    HW1 4406   1.620   2.268   4.713 -0.5745 -1.4410 -0.4508
 1102SOL    HW2 4407   1.504   2.225   4.800 -0.5919 -0.3777  0.0725
 1102SOL     MW 4408   1.542   2.284   4.749 -0.0869 -0.5385  0.2538
 1103SOL     OW 4409   4.694   4.341   0.871 -0.0998  0.1260  0.3206
 1103SOL    HW1 4410   4.744   4.262   0.849 -1.8786 -1.1475  0.6415
 1103SOL    HW2 4411   4.622   4.342   0.809 -0.6388  0.9871  0.9380
 1103SOL     MW 4412   4.691   4.331   0.860 -0.3965  0.0732  0.4407
 1104SOL     OW 4413   0.887   4.009   1.862 -0.4653  0.5369 -0.6122
 1104SOL    HW1 4414   0.867   3.930   1.813 -1.5579  0.5990 -0.2939
 1104SOL    HW2 4415   0.863   3.988   1.952  1.9614  0.2470  0.0516
 1104SOL     MW 4416   0.882   3.996   1.867 -0.2945  0.5077 -0.4865
 1105SOL     OW 4417   5.209   3.006   3.904 -0.1448  0.3089 -0.2048
 1105SOL    HW1 4418   5.149   2.954   3.957  0.7567  1.3811  1.9883
 1105SOL    HW2 4419   5.293   2.998   3.948  0.5397  1.6437 -1.1967
 1105SOL     MW 4420   5.212   2.999   3.916  0.0582  0.6170 -0.0510
 1106SOL     OW 4421   0.079   0.274   1.524 -0.2793 -0.0999 -0.0277
 1106SOL    HW1 4422   0.054   0.354   1.478  0.9561  0.6907  0.5986
 1106SOL    HW2 4423   0.152   0.301   1.580 -0.9398 -1.2763  1.4941
 1106SOL     MW 4424   0.085   0.288   1.525 -0.2057 -0.1493  0.2473
 1107SOL     OW 4425   0.296   5.036   5.336 -0.3223 -0.0605 -0.6098
 1107SOL    HW1 4426   0.254   5.015   5.252 -0.2250  0.7609 -0.8733
 1107SOL    HW2 4427   0.385   5.062   5.313 -0.1425 -0.3045 -0.2011
 1107SOL     MW 4428   0.302   5.037   5.322 -0.2868  0.0134 -0.5912
 1108SOL     OW 4429   2.227   4.098   1.516  0.6526  0.2015 -0.2388
 1108SOL    HW1 4430   2.216   4.186   1.480 -0.5247  0.3594  0.4742
 1108SOL    HW2 4431   2.249   4.044   1.439 -0.7215  0.7339 -1.0434
 1108SOL     MW 4432   2.229   4.103   1.501  0.3260  0.2899 -0.2506
 1109SOL     OW 4433   1.780   2.206   4.683  0.0851 -0.5137 -0.4780
 1109SOL    HW1 4434   1.782   2.149   4.760  0.7671 -1.5527 -1.2349
 1109SOL    HW2 4435   1.850   2.269   4.699  1.0074 -1.4383 -0.7392
 1109SOL     MW 4436   1.790   2.207   4.695  0.2904 -0.7651 -0.6083
 1110SOL     OW 4437   4.939   3.595   4.471 -0.2553 -0.1876 -0.2581
 1110SOL    HW1 4438   5.014   3.538   4.454  0.0391  0.3312 -0.7630
 1110SOL    HW2 4439   4.922   3.585   4.565  1.2502  0.6009  0.1404
 1110SOL     MW 4440   4.947   3.587   4.481 -0.0249 -0.0203 -0.2717
 1111SOL     OW 4441   1.105   3.252   2.319  0.1501  0.5419  0.0288
 1111SOL    HW1 4442   1.078   3.289   2.235 -0.5904 -0.9452 -0.4051
 1111SOL    HW2 4443   1.200   3.262   2.320  0.0477  1.7168 -0.4161
 1111SOL     MW 4444   1.114   3.258   2.308  0.0422  0.5020 -0.0837
 1112SOL     OW 4445   3.247   0.434   3.900 -0.0056 -0.1092  0.0880
 1112SOL    HW1 4446   3.312   0.367   3.920 -0.2952 -0.2036  0.7394
 1112SOL    HW2 4447   3.166   0.384   3.884  0.3445 -0.1019 -2.0380
 1112SOL     MW 4448   3.245   0.419   3.901  0.0022 -0.1203 -0.1007
 1113SOL     OW 4449   2.408   0.691   1.962 -0.7535 -0.6463 -0.2505
 1113SOL    HW1 4450   2.348   0.732   2.024 -2.0991 -2.9107  0.0606
 1113SOL    HW2 4451   2.458   0.764   1.925 -1.1283  0.9541  2.1761
 1113SOL     MW 4452   2.407   0.706   1.965 -0.9737 -0.7313  0.1000
 1114SOL     OW 4453   2.067   2.643   3.495 -0.2552 -0.5290 -0.3595
 1114SOL    HW1 4454   2.013   2.619   3.571  1.2379  0.0542  0.9451
 1114SOL    HW2 4455   2.074   2.738   3.500  0.5565 -0.5674 -0.7280
 1114SOL     MW 4456   2.061   2.652   3.506  0.0399 -0.4593 -0.2397
 1115SOL     OW 4457   2.628   4.941   0.477 -0.2833  0.3938  0.7237
 1115SOL    HW1 4458   2.697   4.876   0.464  0.3938  1.1446  0.4956
 1115SOL    HW2 4459   2.647   5.010   0.414 -1.9833  0.0396 -0.2541
 1115SOL     MW 4460   2.639   4.941   0.467 -0.4142  0.4446  0.5693
 1116SOL     OW 4461   5.051   4.294   4.928  0.4710  0.3365  0.4228
 1116SOL    HW1 4462   5.072   4.240   4.851  0.7085  0.5652  0.3272
 1116SOL    HW2 4463   4.984   4.354   4.897  1.2573  1.0749  0.1259
 1116SOL     MW 4464   5.045   4.295   4.914  0.6020  0.4603  0.3726
 1117SOL     OW 4465   2.101   5.399   3.533  0.1155  0.2901 -0.0714
 1117SOL    HW1 4466   2.157   5.421   3.459 -1.1740 -0.4206 -1.2987
 1117SOL    HW2 4467   2.039   5.471   3.539  0.3348  0.4421  0.4628
 1117SOL     MW 4468   2.100   5.411   3.525 -0.0215  0.2186 -0.1601
 1118SOL     OW 4469   3.906   4.192   3.416 -0.4891  0.7297  0.1869
 1118SOL    HW1 4470   3.917   4.102   3.386 -0.9751  1.1166 -1.2633
 1118SOL    HW2 4471   3.995   4.225   3.425 -0.3075  0.4642 -0.5090
 1118SOL     MW 4472   3.918   4.185   3.413 -0.5280  0.7453 -0.0878
 1119SOL     OW 4473   5.089   2.162   1.749 -0.1846 -0.8463 -0.6903
 1119SOL    HW1 4474   5.159   2.117   1.702 -1.2377 -0.5307 -2.7082
 1119SOL    HW2 4475   5.101   2.254   1.727 -0.6702 -0.6788 -0.2779
 1119SOL     MW 4476   5.099   2.168   1.740 -0.3816 -0.7845 -0.8958
 1120SOL     OW 4477   4.940   4.773   0.823 -0.0429 -0.1728 -0.1714
 1120SOL    HW1 4478   5.011   4.711   0.811 -0.5271 -0.5964 -0.9195
 1120SOL    HW2 4479   4.968   4.828   0.896  0.9542 -0.4606 -0.3276
 1120SOL     MW 4480   4.952   4.772   0.831  0.0228 -0.2639 -0.2871
 1121SOL     OW 4481   3.424   3.930   0.572  0.0530 -0.1506 -0.0198
 1121SOL    HW1 4482   3.503   3.923   0.518 -0.0276  1.4400 -0.4121
 1121SOL    HW2 4483   3.375   4.002   0.532 -0.9022 -0.1705  1.0780
 1121SOL     MW 4484   3.428   3.938   0.560 -0.0796  0.0505  0.0705
 1122SOL     OW 4485   4.265   3.339   2.288 -0.0591 -0.2204  0.2174
 1122SOL    HW1 4486   4.218   3.284   2.351 -2.9747  0.1655 -1.4816
 1122SOL    HW2 4487   4.268   3.425   2.329 -1.1928 -0.1671  0.2103
 1122SOL     MW 4488   4.259   3.343   2.301 -0.5774 -0.1642 -0.0010
 1123SOL     OW 4489   1.632   1.883   4.458 -0.2243  0.0374  0.0688
 1123SOL    HW1 4490   1.556   1.934   4.431 -0.3864 -0.7404 -1.0144
 1123SOL    HW2 4491   1.630   1.885   4.554 -0.8211  1.1550  0.0515
 1123SOL     MW 4492   1.622   1.890   4.467 -0.3214  0.0809 -0.0721
 1124SOL     OW 4493   4.327   1.959   0.447 -0.3490 -0.1958  0.0838
 1124SOL    HW1 4494   4.285   1.911   0.519 -1.0276  0.5689  0.2122
 1124SOL    HW2 4495   4.418   1.930   0.449 -0.1037  0.5679  1.9228
 1124SOL     MW 4496   4.333   1.949   0.457 -0.4044 -0.0001  0.3356
 1125SOL     OW 4497   4.160   4.141   2.032  0.2290 -0.4927 -0.2563
 1125SOL    HW1 4498   4.161   4.236   2.020 -0.4246 -0.7215 -2.5271
 1125SOL    HW2 4499   4.252   4.117   2.037  0.4043  0.3255  1.5015
 1125SOL     MW 4500   4.172   4.150   2.031  0.1678 -0.4173 -0.3220
 1126SOL     OW 4501   5.164   5.311   5.240 -0.0857  0.2883 -0.2448
 1126SOL    HW1 4502   5.181   5.300   5.334 -0.7344  1.7373  0.0609
 1126SOL    HW2 4503   5.071   5.290   5.230  0.0160 -0.0148 -0.6116
 1126SOL     MW 4504   5.154   5.307   5.251 -0.1557  0.4350 -0.2526
 1127SOL     OW 4505   2.473   4.401   3.025  0.1667 -0.1753 -0.7213
 1127SOL    HW1 4506   2.463   4.393   3.120 -0.1317  0.3353 -0.7104
 1127SOL    HW2 4507   2.561   4.366   3.008 -0.0242 -0.8713 -0.3413
 1127SOL     MW 4508   2.483   4.395   3.035  0.1041 -0.1990 -0.6713
 1128SOL     OW 4509   5.308   4.605   3.976  1.0827 -0.1607 -0.3296
 1128SOL    HW1 4510   5.359   4.579   3.900  2.7868  0.8193  0.4141
 1128SOL    HW2 4511   5.290   4.523   4.022  0.6332 -0.6845 -1.4046
 1128SOL     MW 4512   5.312   4.591   3.972  1.2433 -0.1023 -0.3720
 1129SOL     OW 4513   3.394   2.137   0.991  0.4441  0.2782  0.0314
 1129SOL    HW1 4514   3.358   2.155   1.078 -0.7285  1.1900 -0.6084
 1129SOL    HW2 4515   3.459   2.068   1.005  0.4117  0.5466  1.6497
 1129SOL     MW 4516   3.397   2.131   1.004  0.2898  0.4293  0.1567
 1130SOL     OW 4517   3.961   3.749   1.227 -0.6437 -0.1412  0.7396
 1130SOL    HW1 4518   3.874   3.718   1.253 -0.6328  0.1736  1.1615
 1130SOL    HW2 4519   4.013   3.669   1.216 -0.7140 -0.2886  1.4699
 1130SOL     MW 4520   3.957   3.735   1.229 -0.6513 -0.1198  0.8871
 1131SOL     OW 4521   2.690   0.805   4.257  0.3935 -0.1039 -0.3978
 1131SOL    HW1 4522   2.671   0.725   4.307  0.7154  0.4549  0.6401
 1131SOL    HW2 4523   2.627   0.869   4.289 -0.8229 -0.2905 -2.2409
 1131SOL     MW 4524   2.679   0.803   4.268  0.2790 -0.0562 -0.5009
 1132SOL     OW 4525   2.480   1.803   2.621  0.2631  0.3868 -0.0761
 1132SOL    HW1 4526   2.484   1.875   2.683  1.0530  0.6138 -0.3844
 1132SOL    HW2 4527   2.423   1.738   2.663 -1.1673  1.5269 -0.1737
 1132SOL     MW 4528   2.473   1.804   2.634  0.1811  0.5618 -0.1281
 1133SOL     OW 4529   3.018   1.383   4.280  0.0306 -0.5554  0.2280
 1133SOL    HW1 4530   2.956   1.328   4.233  3.2163 -3.1724 -1.2966
 1133SOL    HW2 4531   3.056   1.440   4.213  1.7518 -1.5413  0.2848
 1133SOL     MW 4532   3.015   1.383   4.265  0.6588 -1.0166  0.0401
 1134SOL     OW 4533   0.689   4.725   1.228 -0.1070 -0.4763  0.3511
 1134SOL    HW1 4534   0.597   4.750   1.235 -0.0766 -0.4991  0.8991
 1134SOL    HW2 4535   0.730   4.765   1.305  0.0791 -1.6013  0.8570
 1134SOL     MW 4536   0.682   4.734   1.239 -0.0793 -0.6232  0.4860
 1135SOL     OW 4537   0.524   2.711   1.543  0.3348 -0.1072 -1.1632
 1135SOL    HW1 4538   0.593   2.654   1.508  0.1725 -0.0305 -1.6112
 1135SOL    HW2 4539   0.504   2.771   1.472 -0.4797 -0.3852 -1.1742
 1135SOL     MW 4540   0.530   2.711   1.530  0.2098 -0.1330 -1.2220
 1136SOL     OW 4541   2.433   0.167   3.944  0.0756 -0.1438  0.0707
 1136SOL    HW1 4542   2.359   0.170   3.884 -0.7887 -1.0258  1.0395
 1136SOL    HW2 4543   2.446   0.073   3.960  0.3225  0.0760  1.2029
 1136SOL     MW 4544   2.425   0.155   3.938 -0.0034 -0.2285  0.3396
 1137SOL     OW 4545   3.704   2.208   1.013  0.1301  0.0316 -0.3289
 1137SOL    HW1 4546   3.702   2.113   1.023  0.8948  0.1575  1.3558
 1137SOL    HW2 4547   3.792   2.234   1.042  0.1546  1.2100 -1.3384
 1137SOL     MW 4548   3.715   2.199   1.018  0.2311  0.1986 -0.2425
 1138SOL     OW 4549   0.379   4.842   4.041  0.0398 -0.0215 -0.1967
 1138SOL    HW1 4550   0.366   4.784   3.966 -1.6559 -0.3199  0.2997
 1138SOL    HW2 4551   0.411   4.785   4.111  1.2336  0.1895 -0.5395
 1138SOL     MW 4552   0.381   4.828   4.040 -0.0244 -0.0327 -0.1770
 1139SOL     OW 4553   4.770   4.041   5.233 -0.2034  0.5928 -0.1475
 1139SOL    HW1 4554   4.789   3.952   5.204 -0.3451  0.4001  0.3430
 1139SOL    HW2 4555   4.691   4.066   5.184 -0.5781  0.1813  0.2402
 1139SOL     MW 4556   4.762   4.033   5.223 -0.2695  0.5155 -0.0351
 1140SOL     OW 4557   4.703   1.681   3.678 -0.2786 -0.2318  0.0895
 1140SOL    HW1 4558   4.692   1.643   3.765 -1.2214 -1.7940 -0.6573
 1140SOL    HW2 4559   4.710   1.605   3.619 -1.5435  0.7322 -1.3933
 1140SOL     MW 4560   4.702   1.666   3.681 -0.5612 -0.3084 -0.1959
 1141SOL     OW 4561   2.124   4.377   3.939 -0.2560  0.5703 -0.0026
 1141SOL    HW1 4562   2.123   4.464   3.900  0.8206  0.5549 -0.0969
 1141SOL    HW2 4563   2.217   4.355   3.947 -0.4574 -1.6433 -2.3714
 1141SOL     MW 4564   2.136   4.385   3.935 -0.1440  0.2849 -0.3179
 1142SOL     OW 4565   0.737   3.518   5.122  0.0016 -0.3488  0.3266
 1142SOL    HW1 4566   0.781   3.444   5.079 -1.2215 -0.3670 -0.9668
 1142SOL    HW2 4567   0.654   3.527   5.076 -0.9285  0.3310  2.0489
 1142SOL     MW 4568   0.732   3.510   5.110 -0.2740 -0.2641  0.3815
 1143SOL     OW 4569   1.760   1.360   3.198 -0.2824  0.0160 -0.1396
 1143SOL    HW1 4570   1.822   1.430   3.180 -1.0394  1.4816  2.5374
 1143SOL    HW2 4571   1.673   1.399   3.185 -0.7091 -0.6831  0.4759
 1143SOL     MW 4572   1.757   1.374   3.194 -0.4339  0.1141  0.2819
 1144SOL     OW 4573   1.384   4.628   2.057  0.0549 -0.5392  0.2899
 1144SOL    HW1 4574   1.474   4.615   2.026 -1.1924 -1.1488 -3.5260
 1144SOL    HW2 4575   1.357   4.541   2.089  0.2899 -0.7937 -0.1886
 1144SOL     MW 4576   1.392   4.615   2.057 -0.0747 -0.6498 -0.2598
 1145SOL     OW 4577   0.413   4.378   1.707 -0.3978  0.2561 -0.5713
 1145SOL    HW1 4578   0.343   4.328   1.665 -0.3831 -0.2375 -0.0222
 1145SOL    HW2 4579   0.494   4.345   1.667 -0.5098  1.7715 -2.2040
 1145SOL     MW 4580   0.415   4.367   1.696 -0.4103  0.3869 -0.7101
 1146SOL     OW 4581   3.358   2.479   1.466  0.1128 -0.0283 -0.1784
 1146SOL    HW1 4582   3.377   2.566   1.431  0.3405 -0.0472 -0.1038
 1146SOL    HW2 4583   3.281   2.450   1.418 -0.8551  0.8164  0.8342
 1146SOL     MW 4584   3.351   2.486   1.455  0.0181  0.0774 -0.0393
 1147SOL     OW 4585   0.487   5.459   5.259  0.2296 -0.0638  0.6892
 1147SOL    HW1 4586   0.517   5.501   5.340  0.7108 -0.1742  0.5746
 1147SOL    HW2 4587   0.502   5.365   5.274 -1.4279 -0.2820  1.1903
 1147SOL     MW 4588   0.493   5.452   5.272  0.0790 -0.1058  0.7387
 1148SOL     OW 4589   2.568   5.379   0.493 -0.5851 -0.2580 -0.0730
 1148SOL    HW1 4590   2.481   5.374   0.454 -1.5152  0.3761  1.8168
 1148SOL    HW2 4591   2.615   5.442   0.438 -1.3170 -0.5638 -1.0808
 1148SOL     MW 4592   2.563   5.386   0.481 -0.7978 -0.2160  0.0399
 1149SOL     OW 4593   3.482   1.907   4.173  0.1437  0.0598 -0.2391
 1149SOL    HW1 4594   3.421   1.867   4.235 -0.0870  0.2900 -0.3171
 1149SOL    HW2 4595   3.557   1.847   4.170  1.0991  1.0641  1.8100
 1149SOL     MW 4596   3.484   1.894   4.180  0.2365  0.2179  0.0132
 1150SOL     OW 4597   0.882   4.425   2.228 -0.3962  0.2462 -0.6171
 1150SOL    HW1 4598   0.843   4.441   2.314  1.8978 -1.2740  0.7760
 1150SOL    HW2 4599   0.908   4.512   2.198 -0.3743  0.7092  0.6649
 1150SOL     MW 4600   0.880   4.438   2.235 -0.0997  0.1109 -0.2746
 1151SOL     OW 4601   4.020   1.280   0.079  0.3085 -0.5350  0.1928
 1151SOL    HW1 4602   3.930   1.251   0.067 -0.1101  0.4822  0.7795
 1151SOL    HW2 4603   4.024   1.310   0.169  0.7527  1.0682 -0.3336
 1151SOL     MW 4604   4.009   1.280   0.089  0.3118 -0.1996  0.2005
 1152SOL     OW 4605   0.277   1.669   2.393 -0.2265 -0.2567  0.2267
 1152SOL    HW1 4606   0.272   1.661   2.488  1.5417 -1.3369  0.2808
 1152SOL    HW2 4607   0.249   1.758   2.374  1.4897  0.7256  1.9778
 1152SOL     MW 4608   0.273   1.679   2.402  0.2195 -0.2692  0.4578
 1153SOL     OW 4609   4.956   4.562   1.097  0.5275 -0.0416  0.1052
 1153SOL    HW1 4610   4.972   4.517   1.180  0.9015 -0.6370 -0.2836
 1153SOL    HW2 4611   5.007   4.643   1.104  1.0161 -0.3562  0.2303
 1153SOL     MW 4612   4.965   4.567   1.109  0.6379 -0.1581  0.0714
 1154SOL     OW 4613   1.689   3.298   2.077  0.0271  0.3246 -0.2033
 1154SOL    HW1 4614   1.718   3.355   2.006 -1.7064  1.4057 -0.0921
 1154SOL    HW2 4615   1.682   3.356   2.153 -1.5658 -0.0513 -0.0373
 1154SOL     MW 4616   1.692   3.313   2.077 -0.3987  0.4149 -0.1678
 1155SOL     OW 4617   0.191   1.448   3.816  0.3987  0.3820  0.9236
 1155SOL    HW1 4618   0.203   1.539   3.789 -1.9246  0.7996  1.1020
 1155SOL    HW2 4619   0.209   1.397   3.737 -1.0571  1.2353 -0.0149
 1155SOL     MW 4620   0.195   1.453   3.803 -0.0850  0.5447  0.8263
 1156SOL     OW 4621   0.696   3.180   4.471 -0.0515 -0.5847  0.0549
 1156SOL    HW1 4622   0.735   3.094   4.452 -1.6972 -1.5356  0.8116
 1156SOL    HW2 4623   0.603   3.169   4.451 -0.1412  1.3299 -0.7491
 1156SOL     MW 4624   0.690   3.167   4.466 -0.2736 -0.4613  0.0488
 1157SOL     OW 4625   4.793   1.449   3.511 -0.2869 -0.8729  0.4545
 1157SOL    HW1 4626   4.711   1.402   3.498 -0.6186 -0.1445 -0.1030
 1157SOL    HW2 4627   4.846   1.389   3.564 -1.0461 -1.4864  0.5399
 1157SOL     MW 4628   4.789   1.435   3.516 -0.4266 -0.8582  0.3941
 1158SOL     OW 4629   3.155   3.340   2.347 -0.2407  0.3384  0.2360
 1158SOL    HW1 4630   3.152   3.420   2.294 -0.9000  0.2597  0.1412
 1158SOL    HW2 4631   3.106   3.363   2.427 -1.1381 -0.2063 -0.1406
 1158SOL     MW 4632   3.148   3.353   2.350 -0.4400  0.2586  0.1757
 1159SOL     OW 4633   1.420   4.363   0.731 -0.2034  0.2835 -0.2791
 1159SOL    HW1 4634   1.438   4.379   0.824 -0.4290  0.8160 -0.3290
 1159SOL    HW2 4635   1.363   4.287   0.731 -0.7857  0.7158  0.0555
 1159SOL     MW 4636   1.415   4.355   0.743 -0.3068  0.4070 -0.2426
 1160SOL     OW 4637   3.269   4.911   2.031 -0.2042 -0.0553 -0.7187
 1160SOL    HW1 4638   3.324   4.905   2.109  1.1424  1.3071 -1.5071
 1160SOL    HW2 4639   3.196   4.852   2.048  0.0980  0.1566  1.5253
 1160SOL     MW 4640   3.267   4.903   2.043  0.0069  0.1462 -0.5323
 1161SOL     OW 4641   2.394   2.022   4.635 -0.2930 -0.4056 -0.5299
 1161SOL    HW1 4642   2.440   2.058   4.559  1.0520  0.1959  0.5163
 1161SOL    HW2 4643   2.439   2.061   4.710 -0.8947 -1.8022  0.5951
 1161SOL     MW 4644   2.406   2.032   4.635 -0.1978 -0.5074 -0.2520
 1162SOL     OW 4645   0.573   5.220   4.859 -0.0387  0.4259  0.2914
 1162SOL    HW1 4646   0.500   5.250   4.805 -1.2879 -0.3748  1.4620
 1162SOL    HW2 4647   0.651   5.237   4.806 -1.2675 -1.7086 -2.4695
 1162SOL     MW 4648   0.574   5.226   4.845 -0.3559  0.0502  0.0878
 1163SOL     OW 4649   3.058   4.738   2.072  0.3799  0.2973 -0.6255
 1163SOL    HW1 4650   2.999   4.718   1.999  1.4772 -0.2800 -1.3963
 1163SOL    HW2 4651   3.017   4.697   2.148 -0.4274  0.2836 -1.0633
 1163SOL     MW 4652   3.045   4.730   2.073  0.4170  0.2217 -0.7802
 1164SOL     OW 4653   1.783   4.997   3.137  0.7350 -0.2753  0.1241
 1164SOL    HW1 4654   1.859   5.055   3.144  0.4562  0.0961  0.0993
 1164SOL    HW2 4655   1.766   4.990   3.044  1.1953 -0.9601  0.0889
 1164SOL     MW 4656   1.791   5.004   3.126  0.7582 -0.3154  0.1164
 1165SOL     OW 4657   2.814   0.303   0.141 -0.4145  0.7328 -0.5205
 1165SOL    HW1 4658   2.845   0.339   0.058  0.3823  1.3003  0.0023
 1165SOL    HW2 4659   2.800   0.210   0.123  1.9237  0.3539 -0.7482
 1165SOL     MW 4660   2.816   0.296   0.128 -0.0132  0.7569 -0.4827
 1166SOL     OW 4661   0.855   4.685   2.772 -0.2412 -0.1792  0.0717
 1166SOL    HW1 4662   0.760   4.682   2.763 -0.1465 -0.8985 -0.8239
 1166SOL    HW2 4663   0.877   4.608   2.824 -0.3778  1.5787  2.9278
 1166SOL     MW 4664   0.846   4.675   2.778 -0.2466 -0.0463  0.3227
 1167SOL     OW 4665   3.664   4.428   4.709 -0.7490  0.0628  0.1349
 1167SOL    HW1 4666   3.676   4.396   4.620  0.7857  0.1779  0.2701
 1167SOL    HW2 4667   3.575   4.461   4.711 -1.4343 -1.6385 -0.8108
 1167SOL     MW 4668   3.654   4.428   4.698 -0.6403 -0.1402  0.0311
 1168SOL     OW 4669   4.568   1.171   2.101 -0.4000 -0.0063  0.4091
 1168SOL    HW1 4670   4.649   1.133   2.067 -0.9812 -1.2865  0.3928
 1168SOL    HW2 4671   4.541   1.110   2.170 -1.0217  0.7465  0.8386
 1168SOL     MW 4672   4.575   1.158   2.105 -0.5540 -0.0738  0.4620
 1169SOL     OW 4673   3.438   1.685   3.659 -0.2222  0.4703  0.1214
 1169SOL    HW1 4674   3.381   1.685   3.582 -0.5498 -0.2098  0.3615
 1169SOL    HW2 4675   3.487   1.767   3.651 -0.2622  0.4191 -0.8002
 1169SOL     MW 4676   3.437   1.696   3.648 -0.2693  0.3767  0.0342
 1170SOL     OW 4677   4.796   2.701   3.577 -0.6341  0.0584  0.3075
 1170SOL    HW1 4678   4.739   2.658   3.514 -0.0028 -0.6020  0.1845
 1170SOL    HW2 4679   4.840   2.630   3.623 -0.1311  0.5542  0.6116
 1170SOL     MW 4680   4.794   2.687   3.575 -0.4889  0.0373  0.3307
 1171SOL     OW 4681   2.584   0.231   1.529 -0.5076 -0.5664 -0.4872
 1171SOL    HW1 4682   2.668   0.254   1.488 -0.3075 -0.3868  0.0125
 1171SOL    HW2 4683   2.524   0.219   1.456  0.0909 -1.2596 -0.8772
 1171SOL     MW 4684   2.587   0.233   1.515 -0.4054 -0.6321 -0.4732
 1172SOL     OW 4685   0.757   3.486   3.123 -0.5662  0.7955 -0.6529
 1172SOL    HW1 4686   0.734   3.405   3.079 -0.8111  0.1234  0.6539
 1172SOL    HW2 4687   0.852   3.494   3.113 -0.6124  0.6192 -1.2241
 1172SOL     MW 4688   0.766   3.477   3.116 -0.6035  0.6869 -0.5587
 1173SOL     OW 4689   4.297   0.465   4.159 -0.2328  0.4064 -0.6410
 1173SOL    HW1 4690   4.296   0.470   4.063 -1.4491  1.1033 -0.6190
 1173SOL    HW2 4691   4.238   0.393   4.180  2.0348 -1.4948 -0.4405
 1173SOL     MW 4692   4.289   0.457   4.149 -0.0982  0.2522 -0.6125
 1174SOL     OW 4693   4.980   1.485   1.407  0.5414  0.5048  0.1420
 1174SOL    HW1 4694   4.898   1.455   1.446  0.6619  0.1950  0.1535
 1174SOL    HW2 4695   4.996   1.570   1.448  0.1053  0.6739 -0.0286
 1174SOL     MW 4696   4.971   1.492   1.417  0.5010  0.4868  0.1216
 1175SOL     OW 4697   3.813   1.194   4.898  0.0007  0.0055  0.1459
 1175SOL    HW1 4698   3.740   1.136   4.877  1.2050 -2.2542  1.6642
 1175SOL    HW2 4699   3.775   1.264   4.951 -1.2747 -0.3373 -0.3072
 1175SOL     MW 4700   3.799   1.195   4.902 -0.0084 -0.3276  0.2823
 1176SOL     OW 4701   1.711   4.318   2.175 -0.2983 -0.1033  0.5386
 1176SOL    HW1 4702   1.640   4.321   2.238 -0.8747 -3.1375  0.1828
 1176SOL    HW2 4703   1.779   4.265   2.217  0.4813  0.1680 -0.3303
 1176SOL     MW 4704   1.711   4.312   2.188 -0.2723 -0.4570  0.3818
 1177SOL     OW 4705   4.746   1.564   4.349 -0.2547  0.3878  0.3266
 1177SOL    HW1 4706   4.659   1.527   4.335 -1.3222  1.9790  2.1621
 1177SOL    HW2 4707   4.767   1.543   4.440  0.3577  1.7153  0.5240
 1177SOL     MW 4708   4.737   1.557   4.359 -0.3129  0.7614  0.5869
 1178SOL     OW 4709   4.872   4.931   4.653  0.4261 -0.1165  0.1159
 1178SOL    HW1 4710   4.876   4.915   4.559 -2.0831 -1.9777  0.2477
 1178SOL    HW2 4711   4.916   4.856   4.693  2.5683  1.2416  0.4991
 1178SOL     MW 4712   4.878   4.919   4.646  0.3791 -0.1809  0.1819
 1179SOL     OW 4713   1.800   0.256   0.042 -0.2055  0.5916  0.1460
 1179SOL    HW1 4714   1.864   0.315   0.001  1.1924 -0.4182  0.7968
 1179SOL    HW2 4715   1.845   0.172   0.047 -1.8399 -0.3209  0.0509
 1179SOL     MW 4716   1.814   0.253   0.037 -0.2358  0.3455  0.2171
 1180SOL     OW 4717   2.714   3.177   2.444  0.5512  0.3381  0.0644
 1180SOL    HW1 4718   2.671   3.242   2.500 -0.5244 -0.5338  0.2875
 1180SOL    HW2 4719   2.645   3.148   2.384  1.4858  0.6743 -1.2131
 1180SOL     MW 4720   2.699   3.182   2.444  0.5332  0.2695 -0.0705
 1181SOL     OW 4721   0.127   1.115   4.711  0.3121 -0.3879  0.2302
 1181SOL    HW1 4722   0.185   1.182   4.677 -0.1254 -0.6888 -1.1703
 1181SOL    HW2 4723   0.130   1.126   4.806  2.0363  0.0948  0.1531
 1181SOL     MW 4724   0.135   1.125   4.719  0.4768 -0.3646  0.0411
 1182SOL     OW 4725   3.342   2.100   2.929 -0.1638 -0.1091  0.3689
 1182SOL    HW1 4726   3.300   2.102   2.843  0.5639  0.0283  0.0080
 1182SOL    HW2 4727   3.283   2.149   2.986 -0.9455 -0.7158  0.0897
 1182SOL     MW 4728   3.329   2.107   2.926 -0.1707 -0.1692  0.2870
 1183SOL     OW 4729   4.482   0.567   0.699  0.0905 -0.0484 -0.0871
 1183SOL    HW1 4730   4.440   0.649   0.672  0.2582  0.9248  2.3873
 1183SOL    HW2 4731   4.477   0.511   0.621 -0.5258  2.0888 -1.6834
 1183SOL     MW 4732   4.476   0.570   0.686  0.0331  0.3498  0.0253
 1184SOL     OW 4733   2.787   5.074   2.261  0.6502 -0.4130  0.3809
 1184SOL    HW1 4734   2.762   4.997   2.210  0.6637 -0.6708  0.7582
 1184SOL    HW2 4735   2.734   5.145   2.225 -0.7073 -0.9591  1.2064
 1184SOL     MW 4736   2.777   5.074   2.250  0.4781 -0.5159  0.5348
 1185SOL     OW 4737   5.209  -0.002   2.863 -0.2158 -0.2278  0.3225
 1185SOL    HW1 4738   5.211  -0.001   2.767 -2.6957 -2.1403  0.1332
 1185SOL    HW2 4739   5.291   0.039   2.890 -0.1421  1.7854 -2.5921
 1185SOL     MW 4740   5.220   0.003   2.854 -0.5238 -0.2149 -0.0748
 1186SOL     OW 4741   3.439   4.900   4.522 -0.0869 -0.0999 -0.0951
 1186SOL    HW1 4742   3.374   4.906   4.592  0.5546 -0.6473  0.5530
 1186SOL    HW2 4743   3.387   4.880   4.444 -1.2012  3.4527 -0.4523
 1186SOL     MW 4744   3.424   4.898   4.521 -0.1475  0.2848 -0.0578
 1187SOL     OW 4745   0.903   2.734   1.706  0.1811 -0.7926 -0.0139
 1187SOL    HW1 4746   0.834   2.712   1.768 -0.2429  2.3500  0.8065
 1187SOL    HW2 4747   0.980   2.751   1.761  0.5342 -0.5905 -0.5599
 1187SOL     MW 4748   0.904   2.734   1.721  0.1721 -0.3645  0.0212
 1188SOL     OW 4749   3.363   1.065   1.672 -0.0567 -0.2216 -0.0571
 1188SOL    HW1 4750   3.316   1.046   1.591 -1.5942  0.8327  0.5358
 1188SOL    HW2 4751   3.430   1.128   1.646 -2.3017  2.3328 -0.1744
 1188SOL     MW 4752   3.365   1.071   1.658 -0.5409  0.2404  0.0038
 1189SOL     OW 4753   0.161   2.739   4.467 -0.4547 -0.0663 -0.2236
 1189SOL    HW1 4754   0.141   2.651   4.434  2.2953 -1.2603  0.9676
 1189SOL    HW2 4755   0.118   2.742   4.553 -1.9729  0.4734 -0.9612
 1189SOL     MW 4756   0.153   2.728   4.474 -0.2970 -0.1501 -0.1655
 1190SOL     OW 4757   2.056   1.540   5.318  0.1838  0.0888 -0.4054
 1190SOL    HW1 4758   2.057   1.518   5.224 -1.0209  1.2071 -0.7109
 1190SOL    HW2 4759   1.963   1.541   5.340  0.4256  0.6623  0.6071
 1190SOL     MW 4760   2.044   1.537   5.309  0.0605  0.3054 -0.3149
 1191SOL     OW 4761   0.515   0.331   3.342  0.4072  0.3103  0.1112
 1191SOL    HW1 4762   0.422   0.307   3.342  0.7214 -0.9704 -0.0427
 1191SOL    HW2 4763   0.519   0.413   3.392 -0.9836  1.1694 -1.0881
 1191SOL     MW 4764   0.504   0.339   3.348  0.2694  0.2563 -0.0620
 1192SOL     OW 4765   2.063   0.266   0.374 -0.0063  0.6310 -0.4075
 1192SOL    HW1 4766   2.079   0.360   0.363  1.9115  0.3332 -0.4771
 1192SOL    HW2 4767   2.082   0.250   0.467  0.0888  0.2266 -0.4979
 1192SOL     MW 4768   2.067   0.276   0.385  0.2514  0.5411 -0.4280
 1193SOL     OW 4769   0.685   0.914   1.631  0.3560  0.7782 -0.0746
 1193SOL    HW1 4770   0.744   0.856   1.582  0.0076 -0.6062  1.1005
 1193SOL    HW2 4771   0.598   0.891   1.600  0.2342  0.8235  0.2305
 1193SOL     MW 4772   0.682   0.904   1.621  0.2958  0.6068  0.1149
 1194SOL     OW 4773   4.660   2.468   3.739 -0.2213 -0.5262  0.0157
 1194SOL    HW1 4774   4.751   2.471   3.710  0.0883 -1.7270  0.7877
 1194SOL    HW2 4775   4.610   2.465   3.658  0.5111 -1.2810 -0.4340
 1194SOL     MW 4776   4.665   2.468   3.725 -0.0879 -0.7765  0.0570
 1195SOL     OW 4777   5.471   1.067   0.940 -0.2157  0.2097 -0.2846
 1195SOL    HW1 4778   5.387   1.103   0.969 -0.4926 -1.7944  1.6813
 1195SOL    HW2 4779   5.449   1.009   0.868 -0.5829 -0.4439  0.3380
 1195SOL     MW 4780   5.457   1.065   0.935 -0.2981 -0.1305  0.0468
 1196SOL     OW 4781   0.420   3.251   3.767 -0.1039  0.0040 -0.0555
 1196SOL    HW1 4782   0.371   3.184   3.814  0.0012 -0.2289 -0.2714
 1196SOL    HW2 4783   0.482   3.201   3.713 -1.0728  0.1867 -1.4018
 1196SOL     MW 4784   0.421   3.236   3.766 -0.2145 -0.0024 -0.2555
 1197SOL     OW 4785   2.072   2.643   2.121 -0.3721  0.8022 -0.2458
 1197SOL    HW1 4786   2.050   2.678   2.208  0.1013 -1.5148  0.8837
 1197SOL    HW2 4787   2.163   2.668   2.108  0.2862 -0.7407  1.0105
 1197SOL     MW 4788   2.081   2.651   2.131 -0.2273  0.3081  0.0596
 1198SOL     OW 4789   4.161   5.415   2.917 -0.2056  0.4511 -0.3403
 1198SOL    HW1 4790   4.096   5.346   2.900  1.4873 -1.2482 -0.3177
 1198SOL    HW2 4791   4.245   5.372   2.899  0.9080  2.6354 -0.6077
 1198SOL     MW 4792   4.163   5.401   2.912  0.1537  0.5132 -0.3716
 1199SOL     OW 4793   2.504   1.417   4.768  0.1569 -0.5396 -0.1175
 1199SOL    HW1 4794   2.586   1.393   4.813 -0.1216 -0.1615  0.6153
 1199SOL    HW2 4795   2.436   1.371   4.817  0.1081 -3.4391 -2.5883
 1199SOL     MW 4796   2.506   1.408   4.780  0.1150 -0.8624 -0.3400
 1200SOL     OW 4797   3.303   3.682   4.283 -0.6202 -0.3446 -0.0875
 1200SOL    HW1 4798   3.221   3.634   4.288 -1.8480  1.4329 -1.5999
 1200SOL    HW2 4799   3.285   3.765   4.326  0.5303 -0.1026 -0.0359
 1200SOL     MW 4800   3.291   3.687   4.289 -0.6301 -0.0861 -0.2745
 1201SOL     OW 4801   4.033   2.463   2.336 -0.1749  0.3474  0.1217
 1201SOL    HW1 4802   3.947   2.477   2.376 -1.0609 -0.1700 -1.5228
 1201SOL    HW2 4803   4.046   2.368   2.340  0.9629  0.5313  1.5757
 1201SOL     MW 4804   4.023   2.453   2.342 -0.1426  0.3047  0.0973
 1202SOL     OW 4805   0.452   1.420   2.684 -0.3690 -0.4069  0.2294
 1202SOL    HW1 4806   0.379   1.477   2.659 -0.1880  0.5689  1.7529
 1202SOL    HW2 4807   0.486   1.387   2.601 -2.8676 -1.3641 -0.5018
 1202SOL     MW 4808   0.447   1.423   2.670 -0.6657 -0.4045  0.3308
 1203SOL     OW 4809   3.885   0.450   2.644 -0.1136  0.0214  0.2599
 1203SOL    HW1 4810   3.879   0.500   2.725 -0.9347  0.5256 -0.1007
 1203SOL    HW2 4811   3.803   0.468   2.598  1.1285  1.3359 -1.5660
 1203SOL     MW 4812   3.874   0.459   2.648 -0.0597  0.2543 -0.0200
 1204SOL     OW 4813   2.720   2.252   4.144  0.1474 -0.2547 -0.1229
 1204SOL    HW1 4814   2.657   2.325   4.149 -1.2282 -1.4572  0.9715
 1204SOL    HW2 4815   2.685   2.186   4.204  2.0882 -1.2889 -0.0530
 1204SOL     MW 4816   2.707   2.253   4.152  0.2198 -0.5410  0.0261
 1205SOL     OW 4817   4.576   0.945   4.931  0.0916 -0.1324  0.3137
 1205SOL    HW1 4818   4.650   0.912   4.983  0.5509  1.9617  1.1008
 1205SOL    HW2 4819   4.616   1.000   4.864 -0.7095  1.4872  1.0936
 1205SOL     MW 4820   4.590   0.948   4.929  0.0479  0.3430  0.5143
 1206SOL     OW 4821   3.133   4.100   4.740 -0.0303 -0.1402 -0.3264
 1206SOL    HW1 4822   3.138   4.194   4.722  0.1278 -0.3149 -1.2406
 1206SOL    HW2 4823   3.219   4.066   4.714 -0.3576 -0.6579 -0.7488
 1206SOL     MW 4824   3.145   4.108   4.734 -0.0519 -0.2289 -0.4975
 1207SOL     OW 4825   4.602   5.066   2.631 -0.5493 -0.7423 -0.8035
 1207SOL    HW1 4826   4.589   5.140   2.572  0.2421 -1.5742 -2.0649
 1207SOL    HW2 4827   4.696   5.061   2.644 -0.7262 -0.2869  0.9694
 1207SOL     MW 4828   4.612   5.075   2.625 -0.4706 -0.7905 -0.7381
 1208SOL     OW 4829   0.581   2.568   5.000 -0.2532  0.3249  0.5318
 1208SOL    HW1 4830   0.553   2.659   5.012 -0.3130  0.2831  0.7093
 1208SOL    HW2 4831   0.577   2.554   4.906 -0.9468  0.2836  0.5655
 1208SOL     MW 4832   0.577   2.578   4.990 -0.3497  0.3143  0.5588
 1209SOL     OW 4833   0.304   2.623   4.122  0.2886  0.2694  0.1036
 1209SOL    HW1 4834   0.363   2.557   4.086 -0.0682  0.4273 -0.7892
 1209SOL    HW2 4835   0.263   2.580   4.197 -1.1980 -1.1637 -1.4341
 1209SOL     MW 4836   0.306   2.609   4.127  0.0526  0.1061 -0.2075
 1210SOL     OW 4837   0.760   3.958   0.657 -0.4233 -0.2890  0.3340
 1210SOL    HW1 4838   0.723   3.874   0.630  0.1405 -0.4956  0.1801
 1210SOL    HW2 4839   0.759   3.955   0.752 -1.2732 -0.0764  0.3354
 1210SOL     MW 4840   0.756   3.947   0.665 -0.4599 -0.2882  0.3145
 1211SOL     OW 4841   0.913   2.002   3.094 -0.1653  0.3478  0.2561
 1211SOL    HW1 4842   0.824   2.031   3.077  0.1604  0.8320 -0.7072
 1211SOL    HW2 4843   0.968   2.059   3.040  0.5382 -1.7043 -1.3543
 1211SOL     MW 4844   0.909   2.013   3.085 -0.0335  0.1471 -0.0734
 1212SOL     OW 4845   4.373   1.424   1.832 -0.7173 -0.1932  0.2956
 1212SOL    HW1 4846   4.451   1.410   1.778 -0.9947  0.2997 -0.2447
 1212SOL    HW2 4847   4.353   1.517   1.823 -0.8274 -0.1245  1.1808
 1212SOL     MW 4848   4.380   1.434   1.824 -0.7669 -0.1213  0.3397
 1213SOL     OW 4849   2.320   1.442   3.246 -0.2595 -0.0718  0.4512
 1213SOL    HW1 4850   2.416   1.449   3.249 -0.0800 -2.0879  0.6164
 1213SOL    HW2 4851   2.296   1.412   3.333 -0.9176 -0.8588  0.0034
 1213SOL     MW 4852   2.329   1.439   3.257 -0.3207 -0.4307  0.4150
 1214SOL     OW 4853   1.103   4.156   1.773 -0.4909  0.4353  0.6186
 1214SOL    HW1 4854   1.180   4.105   1.797 -0.6251  0.3207  0.8142
 1214SOL    HW2 4855   1.032   4.116   1.823 -0.6955  0.4772  0.3630
 1214SOL     MW 4856   1.104   4.144   1.783 -0.5342  0.4260  0.6109
 1215SOL     OW 4857   3.140   3.663   4.644  0.3740  0.2089  0.6704
 1215SOL    HW1 4858   3.116   3.742   4.694 -0.3433  0.1135  0.4967
 1215SOL    HW2 4859   3.129   3.591   4.706 -0.2102  0.1222  0.4716
 1215SOL     MW 4860   3.135   3.664   4.658  0.2074  0.1856  0.6227
 1216SOL     OW 4861   5.317   0.717   4.605  0.2668  0.3299 -0.7055
 1216SOL    HW1 4862   5.270   0.797   4.580 -1.9690 -1.2958 -2.1624
 1216SOL    HW2 4863   5.259   0.675   4.669  2.2291  0.6190  1.3918
 1216SOL     MW 4864   5.303   0.722   4.610  0.2318  0.1588 -0.6235
 1217SOL     OW 4865   3.858   0.228   1.939 -0.0553  0.0795  0.0541
 1217SOL    HW1 4866   3.790   0.282   1.898 -2.8047 -2.1143  1.3634
 1217SOL    HW2 4867   3.847   0.244   2.033  0.5568 -1.1278  0.3444
 1217SOL     MW 4868   3.848   0.237   1.946 -0.3289 -0.3559  0.2589
 1218SOL     OW 4869   0.723   1.331   3.893  0.0064 -0.1651  0.0635
 1218SOL    HW1 4870   0.668   1.406   3.869  0.3028  0.1581  0.3635
 1218SOL    HW2 4871   0.711   1.323   3.988  0.1963 -0.3122  0.0758
 1218SOL     MW 4872   0.715   1.340   3.902  0.0686 -0.1425  0.1035
 1219SOL     OW 4873   3.531   4.810   4.926 -0.2855 -0.0135  0.2311
 1219SOL    HW1 4874   3.579   4.866   4.988 -0.2346  0.4529 -0.2189
 1219SOL    HW2 4875   3.462   4.770   4.978  2.3897 -3.2235  1.7121
 1219SOL     MW 4876   3.528   4.812   4.941  0.0635 -0.3647  0.3631
 1220SOL     OW 4877   2.143   0.518   0.373  0.0939  0.1573  0.0106
 1220SOL    HW1 4878   2.153   0.534   0.279  0.9429 -2.0402 -0.3391
 1220SOL    HW2 4879   2.150   0.605   0.413  1.9958  0.9263 -1.7831
 1220SOL     MW 4880   2.145   0.531   0.366  0.4460 -0.0256 -0.2638
 1221SOL     OW 4881   2.616   4.058   1.147  0.3508 -0.1833  0.4433
 1221SOL    HW1 4882   2.543   4.013   1.104  0.0192  1.5153 -0.8956
 1221SOL    HW2 4883   2.577   4.098   1.225 -0.2981  1.0462 -0.4727
 1221SOL     MW 4884   2.602   4.058   1.152  0.2253  0.1915  0.1547
 1222SOL     OW 4885   1.746   3.213   4.635  0.5087 -0.2368  0.1500
 1222SOL    HW1 4886   1.711   3.152   4.570  1.7047  0.2962 -1.0286
 1222SOL    HW2 4887   1.716   3.299   4.606  1.7710  0.1026 -0.2188
 1222SOL     MW 4888   1.738   3.216   4.623  0.8234 -0.1251 -0.0481
 1223SOL     OW 4889   1.467   2.428   0.662 -0.4639 -0.2824 -0.1083
 1223SOL    HW1 4890   1.483   2.430   0.756 -2.3906 -0.9289  0.2740
 1223SOL    HW2 4891   1.472   2.335   0.639  0.3666 -0.0943 -0.7310
 1223SOL     MW 4892   1.470   2.417   0.671 -0.6043 -0.3411 -0.1391
 1224SOL     OW 4893   0.467   1.693   3.999  0.1774  0.4833  0.0131
 1224SOL    HW1 4894   0.539   1.730   4.049  0.0855  2.1933 -1.0380
 1224SOL    HW2 4895   0.508   1.627   3.942  0.9992  1.6281 -0.7748
 1224SOL     MW 4896   0.481   1.689   3.998  0.2708  0.8488 -0.2223
 1225SOL     OW 4897   4.258   4.506   3.307 -0.4668  0.0223  0.0770
 1225SOL    HW1 4898   4.167   4.536   3.314 -0.3554  0.5949 -0.7326
 1225SOL    HW2 4899   4.252   4.410   3.311 -1.0708  0.0671  0.3677
 1225SOL     MW 4900   4.245   4.497   3.308 -0.5298  0.1013  0.0106
 1226SOL     OW 4901   0.070   4.988   1.769 -0.5646  0.2498  0.0145
 1226SOL    HW1 4902   0.044   5.081   1.767  0.9942  0.6980 -1.0747
 1226SOL    HW2 4903   0.088   4.966   1.678 -1.9385 -1.4698  0.1215
 1226SOL     MW 4904   0.069   4.997   1.757 -0.5409  0.0871 -0.1112
 1227SOL     OW 4905   4.063   2.989   2.937  0.0369  0.3402  0.5643
 1227SOL    HW1 4906   4.000   2.997   2.866  0.0906 -1.1987  0.2933
 1227SOL    HW2 4907   4.135   3.048   2.912 -1.4789  2.5408  1.1615
 1227SOL     MW 4908   4.064   2.997   2.924 -0.1503  0.4249  0.6060
 1228SOL     OW 4909   4.081   0.938   4.408 -0.3900 -0.5637  0.3411
 1228SOL    HW1 4910   4.021   1.010   4.424 -0.4772 -0.2946 -1.0397
 1228SOL    HW2 4911   4.088   0.893   4.492  0.4474  1.6245  1.5155
 1228SOL     MW 4912   4.074   0.941   4.421 -0.2940 -0.2492  0.3147
 1229SOL     OW 4913   3.100   1.437   0.091  0.0098  0.5086 -0.4177
 1229SOL    HW1 4914   3.028   1.465   0.147  0.5154  2.7845 -0.7985
 1229SOL    HW2 4915   3.160   1.391   0.149 -1.1917 -0.4126  0.1227
 1229SOL     MW 4916   3.099   1.435   0.105 -0.0793  0.6821 -0.3972
 1230SOL     OW 4917   1.658   3.036   3.315 -0.0860 -0.1392  1.0480
 1230SOL    HW1 4918   1.733   2.998   3.270  0.7762 -1.4687  3.4034
 1230SOL    HW2 4919   1.584   3.020   3.256  1.3361  0.5927 -1.0209
 1230SOL     MW 4920   1.658   3.029   3.302  0.2064 -0.2157  1.0847
 1231SOL     OW 4921   5.412   0.658   0.938 -0.1280  0.0109 -0.0589
 1231SOL    HW1 4922   5.363   0.710   0.874 -2.1207 -1.2754  0.3272
 1231SOL    HW2 4923   5.395   0.568   0.913 -0.6870 -0.5286  2.0533
 1231SOL     MW 4924   5.404   0.653   0.926 -0.4546 -0.2228  0.2609
 1232SOL     OW 4925   3.348   3.053   2.058  0.5496  0.3369 -0.3855
 1232SOL    HW1 4926   3.324   3.001   2.135 -0.1928  0.8993 -0.2233
 1232SOL    HW2 4927   3.424   3.008   2.022 -1.1703 -2.0098 -1.3645
 1232SOL     MW 4928   3.355   3.040   2.063  0.2344  0.1085 -0.4900
 1233SOL     OW 4929   1.441   1.892   1.954  0.0665 -0.2409 -0.2316
 1233SOL    HW1 4930   1.476   1.809   1.987  0.0409  0.2003  0.9404
 1233SOL    HW2 4931   1.426   1.876   1.861  0.5398 -1.3900 -0.1278
 1233SOL     MW 4932   1.444   1.880   1.946  0.1238 -0.3315 -0.0683
 1234SOL     OW 4933   4.129   0.831   4.659 -0.6621 -0.5998 -0.6629
 1234SOL    HW1 4934   4.149   0.748   4.704 -2.0390 -1.1374 -0.9826
 1234SOL    HW2 4935   4.048   0.861   4.701  0.2752  1.0674  0.0509
 1234SOL     MW 4936   4.121   0.824   4.670 -0.7183 -0.4552 -0.6124
 1235SOL     OW 4937   3.768   5.046   4.743 -0.5197 -0.3534 -0.8384
 1235SOL    HW1 4938   3.831   5.100   4.695 -0.0405 -0.8597 -0.7807
 1235SOL    HW2 4939   3.811   5.025   4.825 -0.3655 -1.5012 -1.1969
 1235SOL     MW 4940   3.782   5.050   4.747 -0.4386 -0.5651 -0.8769
 1236SOL     OW 4941   3.442   3.055   0.491  0.1392  0.1970  0.2959
 1236SOL    HW1 4942   3.462   3.010   0.573  0.3047 -0.3293 -0.0306
 1236SOL    HW2 4943   3.527   3.089   0.462  0.3692 -0.9549 -0.4456
 1236SOL     MW 4944   3.455   3.054   0.498  0.1898 -0.0178  0.1592
 1237SOL     OW 4945   1.175   4.327   1.427  0.0325  0.6636 -0.0363
 1237SOL    HW1 4946   1.266   4.349   1.449 -0.2299 -0.7583  2.9809
 1237SOL    HW2 4947   1.178   4.234   1.404 -0.7162  0.4402  0.7161
 1237SOL     MW 4948   1.187   4.318   1.427 -0.0969  0.4530  0.4463
 1238SOL     OW 4949   2.016   0.370   2.900 -0.1115  0.1761 -0.2738
 1238SOL    HW1 4950   2.022   0.346   2.808  1.8006  0.9933 -0.4010
 1238SOL    HW2 4951   1.938   0.426   2.904 -1.5694 -1.6993 -0.9128
 1238SOL     MW 4952   2.007   0.374   2.889 -0.0533  0.0406 -0.3718
 1239SOL     OW 4953   4.076   0.507   0.860 -0.5309  0.5243 -0.2123
 1239SOL    HW1 4954   4.096   0.558   0.782  1.8601 -0.8535 -0.6159
 1239SOL    HW2 4955   3.987   0.474   0.845 -0.9023  1.9738 -1.3695
 1239SOL     MW 4956   4.067   0.509   0.848 -0.2724  0.5335 -0.4121
 1240SOL     OW 4957   1.253   0.106   1.195 -0.0469 -0.3410 -0.0529
 1240SOL    HW1 4958   1.348   0.098   1.188  0.1933  2.1692 -0.7337
 1240SOL    HW2 4959   1.239   0.188   1.242 -1.9313 -2.0043  2.5065
 1240SOL     MW 4960   1.263   0.116   1.200 -0.2574 -0.2326  0.1876
 1241SOL     OW 4961   1.050   1.237   1.340  0.3143 -0.1842 -0.1052
 1241SOL    HW1 4962   1.118   1.276   1.395  0.2489  0.6816 -0.6176
 1241SOL    HW2 4963   1.026   1.156   1.385  1.1214 -0.1023  0.4956
 1241SOL     MW 4964   1.056   1.232   1.353  0.4093 -0.0629 -0.0939
 1242SOL     OW 4965   3.767   3.012   3.311 -0.4469  0.1480 -0.2438
 1242SOL    HW1 4966   3.776   3.010   3.407  0.6940 -0.6749 -0.3536
 1242SOL    HW2 4967   3.856   3.001   3.278 -0.9182 -0.3167 -1.4094
 1242SOL     MW 4968   3.779   3.010   3.319 -0.3611 -0.0168 -0.4071
 1243SOL     OW 4969   1.049   3.695   1.130 -0.0823 -0.2691  0.0233
 1243SOL    HW1 4970   1.139   3.665   1.120  0.3990  1.3120 -0.5762
 1243SOL    HW2 4971   1.036   3.702   1.225  0.8470  0.7194  0.0839
 1243SOL     MW 4972   1.059   3.692   1.141  0.0982  0.0598 -0.0457
 1244SOL     OW 4973   3.500   0.052   2.612 -0.5443 -0.0804  0.3843
 1244SOL    HW1 4974   3.455   0.131   2.580 -1.0242 -0.7934 -0.7992
 1244SOL    HW2 4975   3.512   0.066   2.705  0.3776  1.8738  0.0179
 1244SOL     MW 4976   3.496   0.064   2.620 -0.4877  0.0785  0.1859
 1245SOL     OW 4977   1.055   5.205   1.062 -0.0626 -0.4034  0.3370
 1245SOL    HW1 4978   1.135   5.238   1.102 -0.0720  0.3696 -0.2591
 1245SOL    HW2 4979   1.010   5.158   1.133 -0.0761  0.9191  1.2306
 1245SOL     MW 4980   1.060   5.203   1.076 -0.0656 -0.1352  0.3751
 1246SOL     OW 4981   5.408   2.469   1.797  0.3933 -0.3752  0.7348
 1246SOL    HW1 4982   5.496   2.453   1.763 -0.0385  0.0541 -0.6739
 1246SOL    HW2 4983   5.420   2.484   1.890  1.6328 -1.7634  0.8186
 1246SOL     MW 4984   5.421   2.469   1.804  0.4967 -0.4980  0.5652
 1247SOL     OW 4985   5.068   3.377   0.281  0.2248  0.2920  0.6038
 1247SOL    HW1 4986   5.012   3.342   0.211 -0.5385 -1.6677  2.0999
 1247SOL    HW2 4987   5.009   3.426   0.337  0.7501  1.4436  0.1848
 1247SOL     MW 4988   5.053   3.379   0.279  0.1943  0.1885  0.7417
 1248SOL     OW 4989   0.999   2.810   4.879 -0.2753 -0.2663 -0.4555
 1248SOL    HW1 4990   1.063   2.741   4.863 -0.9989 -0.8278 -1.0222
 1248SOL    HW2 4991   0.992   2.855   4.795 -1.0948 -0.6312 -0.5955
 1248SOL     MW 4992   1.006   2.807   4.866 -0.4729 -0.3849 -0.5460
 1249SOL     OW 4993   5.359   1.690   2.163  0.1925 -0.1510 -0.2118
 1249SOL    HW1 4994   5.334   1.761   2.221  1.3285 -0.5286  0.7819
 1249SOL    HW2 4995   5.282   1.633   2.160 -1.0439  1.4831 -1.6973
 1249SOL     MW 4996   5.346   1.692   2.170  0.1797  0.0099 -0.2747
 1250SOL     OW 4997   4.532   0.263   3.949  0.0018  0.2425 -0.3072
 1250SOL    HW1 4998   4.491   0.194   4.000 -1.0723 -0.5117 -2.0972
 1250SOL    HW2 4999   4.460   0.307   3.904  0.9122  0.6439 -1.4391
 1250SOL     MW 5000   4.518   0.260   3.950 -0.0192  0.1973 -0.6812
 1251SOL     OW 5001   4.064   0.663   2.965 -0.1010  0.1265  0.6671
 1251SOL    HW1 5002   4.113   0.596   2.918 -3.0586 -1.4296 -0.4707
 1251SOL    HW2 5003   4.084   0.647   3.058 -0.3640 -2.0720  0.3952
 1251SOL     MW 5004   4.073   0.652   2.971 -0.5133 -0.3542  0.4867
 1252SOL     OW 5005   1.730   1.888   1.188  0.2006 -0.5157 -0.7733
 1252SOL    HW1 5006   1.712   1.825   1.258  3.1944 -0.6751 -0.0094
 1252SOL    HW2 5007   1.700   1.845   1.108 -1.7013 -1.0650  0.1920
 1252SOL     MW 5008   1.724   1.875   1.187  0.3403 -0.6064 -0.5520
 1253SOL     OW 5009   3.706   1.522   1.875  0.3946  0.1824 -0.7802
 1253SOL    HW1 5010   3.718   1.504   1.968  1.4940  3.2334 -0.2077
 1253SOL    HW2 5011   3.773   1.469   1.832  0.5400 -0.5246  0.2698
 1253SOL     MW 5012   3.716   1.513   1.882  0.5540  0.4825 -0.5725
 1254SOL     OW 5013   0.844   1.695   4.454 -0.2934 -0.0363  0.0742
 1254SOL    HW1 5014   0.909   1.753   4.414  0.7281 -1.0401  0.2231
 1254SOL    HW2 5015   0.895   1.621   4.487 -1.6716 -1.6663 -1.2580
 1254SOL     MW 5016   0.859   1.693   4.453 -0.3390 -0.3735 -0.0773
 1255SOL     OW 5017   2.285   5.363   0.420  0.3513 -0.1085  0.2283
 1255SOL    HW1 5018   2.225   5.332   0.489 -0.4350 -1.2589 -0.9282
 1255SOL    HW2 5019   2.229   5.418   0.364  0.5756 -0.5146 -0.3973
 1255SOL     MW 5020   2.270   5.366   0.422  0.2793 -0.3077  0.0002
 1256SOL     OW 5021   1.567   0.578   0.263  0.1993 -0.0209  0.1785
 1256SOL    HW1 5022   1.519   0.647   0.217 -2.6076 -1.5182  0.7143
 1256SOL    HW2 5023   1.559   0.601   0.356  1.7757  0.4187  0.2475
 1256SOL     MW 5024   1.560   0.590   0.269  0.0418 -0.1563  0.2559
 1257SOL     OW 5025   2.230   2.166   0.336  0.7634 -0.0675  0.0374
 1257SOL    HW1 5026   2.263   2.165   0.246  0.8670  0.2219  0.0742
 1257SOL    HW2 5027   2.258   2.250   0.372  2.8427 -1.1085  1.1217
 1257SOL     MW 5028   2.238   2.176   0.329  1.0429 -0.1637  0.1809
 1258SOL     OW 5029   3.195   4.433   0.957 -0.4167 -0.0041  0.0763
 1258SOL    HW1 5030   3.123   4.395   1.007 -0.9352 -0.1764 -0.7784
 1258SOL    HW2 5031   3.236   4.359   0.912 -0.8702  0.3007 -0.8832
 1258SOL     MW 5032   3.191   4.419   0.957 -0.5411  0.0129 -0.1559
 1259SOL     OW 5033   2.189   3.124   0.150 -0.0409 -0.4113 -0.0914
 1259SOL    HW1 5034   2.101   3.117   0.187 -0.5355 -1.6509 -1.4188
 1259SOL    HW2 5035   2.177   3.110   0.056  1.6831 -1.6624 -0.1748
 1259SOL     MW 5036   2.176   3.121   0.143  0.1165 -0.7302 -0.2720
 1260SOL     OW 5037   1.313   4.681   1.393  0.1415 -0.1227 -0.0060
 1260SOL    HW1 5038   1.220   4.672   1.416  0.0807  0.2359 -0.1050
 1260SOL    HW2 5039   1.316   4.665   1.299  0.0214  0.9584 -0.1957
 1260SOL     MW 5040   1.301   4.678   1.384  0.1183  0.0616 -0.0429
 1261SOL     OW 5041   0.991   0.165   1.907  0.4928  0.1010  0.4757
 1261SOL    HW1 5042   0.911   0.172   1.959  0.8137 -0.6735  1.0976
 1261SOL    HW2 5043   1.061   0.161   1.973  0.9046 -0.9492 -0.0098
 1261SOL     MW 5044   0.990   0.166   1.922  0.5866 -0.1326  0.4931
 1262SOL     OW 5045   0.012   4.694   1.814  0.2767  0.0496 -0.0302
 1262SOL    HW1 5046   0.036   4.786   1.802 -0.8653  0.2435 -0.9325
 1262SOL    HW2 5047   0.004   4.659   1.725  0.5523 -0.8913  0.2988
 1262SOL     MW 5048   0.014   4.701   1.801  0.1658 -0.0460 -0.1036
 1263SOL     OW 5049   1.902   4.285   1.101 -0.1252 -0.4851  0.2781
 1263SOL    HW1 5050   1.994   4.256   1.101 -0.1654 -0.6260 -0.1705
 1263SOL    HW2 5051   1.908   4.380   1.094 -0.0142 -0.5371 -0.4605
 1263SOL     MW 5052   1.915   4.293   1.100 -0.1161 -0.5098  0.1261
 1264SOL     OW 5053   3.866   4.261   3.047  0.3024 -0.4817 -0.0019
 1264SOL    HW1 5054   3.802   4.252   2.977  1.3571  0.1964 -1.0861
 1264SOL    HW2 5055   3.932   4.193   3.029  1.3704  0.6635 -0.5840
 1264SOL     MW 5056   3.867   4.251   3.036  0.5741 -0.2483 -0.2152
 1265SOL     OW 5057   4.094   3.480   4.139 -0.6240 -0.4942 -0.2406
 1265SOL    HW1 5058   4.123   3.533   4.065 -1.4137 -1.0221 -0.9590
 1265SOL    HW2 5059   4.000   3.498   4.146 -0.7789 -1.2975 -0.1010
 1265SOL     MW 5060   4.086   3.489   4.130 -0.7449 -0.6646 -0.3147
 1266SOL     OW 5061   3.850   1.605   3.604  0.6233  0.5542 -0.3397
 1266SOL    HW1 5062   3.759   1.575   3.605  0.3246  1.3886 -1.4468
 1266SOL    HW2 5063   3.902   1.524   3.604 -0.1085  0.0717  0.1255
 1266SOL     MW 5064   3.845   1.591   3.604  0.4914  0.5993 -0.4219
 1267SOL     OW 5065   4.603   4.764   4.921  0.2627  0.9383 -0.0828
 1267SOL    HW1 5066   4.603   4.818   4.841 -0.0661  1.4543  0.2583
 1267SOL    HW2 5067   4.527   4.707   4.911  0.5151  0.6460 -0.3683
 1267SOL     MW 5068   4.594   4.764   4.909  0.2530  0.9669 -0.0757
 1268SOL     OW 5069   2.227   0.626   2.327  0.0618  0.2156  0.0070
 1268SOL    HW1 5070   2.256   0.686   2.258  0.0617  0.7204  0.4376
 1268SOL    HW2 5071   2.197   0.684   2.397 -2.7205 -0.2408 -0.6867
 1268SOL     MW 5072   2.227   0.641   2.327 -0.2944  0.2218 -0.0267
 1269SOL     OW 5073   0.733   4.977   1.430 -0.1464  0.6440 -0.0581
 1269SOL    HW1 5074   0.693   5.053   1.388  0.9491  1.2610 -0.0128
 1269SOL    HW2 5075   0.673   4.956   1.502 -0.5669  1.3421 -0.1885
 1269SOL     MW 5076   0.720   4.984   1.434 -0.0600  0.8123 -0.0690
 1270SOL     OW 5077   1.834   4.564   3.044  0.0601 -0.1075 -0.1067
 1270SOL    HW1 5078   1.895   4.499   3.079  1.3326  0.4307 -1.2357
 1270SOL    HW2 5079   1.811   4.531   2.957 -1.2981 -0.3013  0.3000
 1270SOL     MW 5080   1.839   4.551   3.037  0.0491 -0.0634 -0.1992
 1271SOL     OW 5081   4.013   5.421   4.502  0.2110  0.1689  0.5428
 1271SOL    HW1 5082   3.944   5.485   4.488 -0.7953 -0.6995  1.4061
 1271SOL    HW2 5083   4.033   5.389   4.414  1.9260  2.7929 -0.1467
 1271SOL     MW 5084   4.007   5.425   4.489  0.3017  0.3936  0.5651
 1272SOL     OW 5085   3.360   1.485   1.327  0.4004  0.1563  0.4907
 1272SOL    HW1 5086   3.288   1.548   1.338 -0.3233 -0.6011  0.2297
 1272SOL    HW2 5087   3.377   1.453   1.415 -1.1936 -1.3686  0.3050
 1272SOL     MW 5088   3.353   1.489   1.340  0.1037 -0.1359  0.4335
 1273SOL     OW 5089   4.130   1.182   2.214  0.2191 -0.0028  0.3076
 1273SOL    HW1 5090   4.110   1.239   2.139 -0.4690  1.4526  1.5382
 1273SOL    HW2 5091   4.188   1.234   2.269  2.9856 -2.0644 -0.4318
 1273SOL     MW 5092   4.135   1.196   2.212  0.4852 -0.0804  0.3705
 1274SOL     OW 5093   3.229   3.186   1.737 -0.6035 -0.2579 -0.4465
 1274SOL    HW1 5094   3.322   3.166   1.740 -0.6643 -0.6090 -0.8120
 1274SOL    HW2 5095   3.217   3.256   1.801  0.1216  0.6608 -1.2955
 1274SOL     MW 5096   3.239   3.192   1.745 -0.5185 -0.1853 -0.6020
 1275SOL     OW 5097   0.508   0.571   4.946 -0.3954  0.4346 -0.8195
 1275SOL    HW1 5098   0.540   0.654   4.981 -1.4001  0.9833 -1.1643
 1275SOL    HW2 5099   0.568   0.505   4.981  1.1108  1.4161 -1.4740
 1275SOL     MW 5100   0.520   0.573   4.955 -0.3312  0.6305 -0.9475
 1276SOL     OW 5101   2.398   4.622   0.449  0.2257  0.3808  0.3434
 1276SOL    HW1 5102   2.422   4.645   0.539 -0.4459  0.3437  0.5436
 1276SOL    HW2 5103   2.361   4.702   0.413  0.9796  0.5427 -0.0800
 1276SOL     MW 5104   2.396   4.635   0.456  0.2362  0.3968  0.3148
 1277SOL     OW 5105   5.168   3.212   2.410  0.4502 -0.3242  0.2975
 1277SOL    HW1 5106   5.075   3.205   2.385  0.2335  0.0492  0.9542
 1277SOL    HW2 5107   5.180   3.143   2.475  0.1323  0.7835  1.5843
 1277SOL     MW 5108   5.157   3.203   2.415  0.3818 -0.1346  0.5463
 1278SOL     OW 5109   0.835   4.741   5.410  0.8963 -0.6079 -0.0055
 1278SOL    HW1 5110   0.789   4.788   5.339  0.6479 -0.9913 -0.1014
 1278SOL    HW2 5111   0.928   4.750   5.388  0.8367 -0.4369 -0.1976
 1278SOL     MW 5112   0.841   4.748   5.398  0.8569 -0.6351 -0.0424
 1279SOL     OW 5113   4.529   3.652   1.566 -0.4200  0.0717  0.1289
 1279SOL    HW1 5114   4.533   3.587   1.636  1.0465  0.2571  0.2573
 1279SOL    HW2 5115   4.515   3.735   1.611 -4.1248 -0.2371 -0.1369
 1279SOL     MW 5116   4.528   3.654   1.581 -0.7065  0.0559  0.1113
 1280SOL     OW 5117   3.538   0.967   3.352  0.0173  0.0757  0.1192
 1280SOL    HW1 5118   3.589   1.013   3.285 -2.1855 -0.2634 -1.9247
 1280SOL    HW2 5119   3.572   0.878   3.351  0.5347  0.2668  0.0589
 1280SOL     MW 5120   3.549   0.962   3.344 -0.1985  0.0567 -0.1501
 1281SOL     OW 5121   4.400   1.759   2.081 -0.2421 -0.0441 -0.3081
 1281SOL    HW1 5122   4.374   1.824   2.147 -0.7455  0.2022 -0.7425
 1281SOL    HW2 5123   4.478   1.718   2.118 -0.4925  0.1179  0.4264
 1281SOL     MW 5124   4.406   1.762   2.094 -0.3386  0.0081 -0.2697
 1282SOL     OW 5125   0.107   4.988   2.637 -0.2198  0.3558  0.6980
 1282SOL    HW1 5126   0.047   4.992   2.563 -0.1080  5.1038  0.5220
 1282SOL    HW2 5127   0.193   4.976   2.598 -0.3875  0.5723  0.2553
 1282SOL     MW 5128   0.110   4.987   2.623 -0.2269  0.9913  0.6188
 1283SOL     OW 5129   0.092   0.354   0.510  0.1656  0.2701 -0.1512
 1283SOL    HW1 5130   0.100   0.407   0.590 -0.6528  0.0436  0.0967
 1283SOL    HW2 5131   0.128   0.409   0.441  1.1631  0.3592  0.4158
 1283SOL     MW 5132   0.098   0.368   0.512  0.1885  0.2525 -0.0468
 1284SOL     OW 5133   4.563   0.315   2.584 -0.0213  0.1879 -0.4912
 1284SOL    HW1 5134   4.612   0.268   2.652  0.0425  1.1332  0.1290
 1284SOL    HW2 5135   4.565   0.256   2.509 -1.2133 -1.4739  0.7055
 1284SOL     MW 5136   4.569   0.301   2.583 -0.1657  0.0962 -0.2586
 1285SOL     OW 5137   1.290   2.132   1.176 -0.7423 -0.1730  0.0520
 1285SOL    HW1 5138   1.307   2.046   1.138 -1.0679 -0.3849  0.3727
 1285SOL    HW2 5139   1.204   2.123   1.218 -0.5929  0.1829  0.4451
 1285SOL     MW 5140   1.281   2.120   1.176 -0.7648 -0.1546  0.1434
 1286SOL     OW 5141   2.724   1.753   4.495 -0.4483  0.9216  0.0379
 1286SOL    HW1 5142   2.639   1.716   4.474  0.4101 -1.1520 -0.0301
 1286SOL    HW2 5143   2.728   1.752   4.591 -0.8527  1.9073  0.0715
 1286SOL     MW 5144   2.714   1.748   4.505 -0.3902  0.7824  0.0335
 1287SOL     OW 5145   5.274   3.953   2.242  0.3772  0.1113  0.3734
 1287SOL    HW1 5146   5.181   3.930   2.239  0.2480  0.7421 -1.1894
 1287SOL    HW2 5147   5.295   3.957   2.335 -0.8416 -1.2843  0.7441
 1287SOL     MW 5148   5.265   3.950   2.254  0.2046  0.0134  0.2208
 1288SOL     OW 5149   3.523   4.348   2.546  0.2377 -0.0815  0.3889
 1288SOL    HW1 5150   3.596   4.291   2.572 -0.4812 -1.2458 -0.0567
 1288SOL    HW2 5151   3.563   4.411   2.487  0.8351 -0.9214 -0.1353
 1288SOL     MW 5152   3.538   4.348   2.542  0.2222 -0.3381  0.2648
 1289SOL     OW 5153   2.737   1.160   0.195  0.3269 -0.1504  0.1394
 1289SOL    HW1 5154   2.821   1.154   0.242  0.1689  0.2999  0.4825
 1289SOL    HW2 5155   2.754   1.221   0.123  0.6273 -1.0014 -0.5299
 1289SOL     MW 5156   2.750   1.167   0.192  0.3451 -0.2017  0.0976
 1290SOL     OW 5157   4.407   4.012   2.078  0.0040 -0.2393  0.2567
 1290SOL    HW1 5158   4.469   3.988   2.008 -0.2264 -1.5174  0.4596
 1290SOL    HW2 5159   4.455   4.076   2.131  1.3525 -1.4821  0.6326
 1290SOL     MW 5160   4.421   4.017   2.076  0.1471 -0.5620  0.3308
 1291SOL     OW 5161   1.237   0.975   4.963  0.1834  0.8506 -0.3738
 1291SOL    HW1 5162   1.242   0.881   4.947  0.7388  0.9348 -0.6809
 1291SOL    HW2 5163   1.143   0.993   4.967 -0.0514  0.8541 -3.7150
 1291SOL     MW 5164   1.225   0.965   4.962  0.2244  0.8618 -0.8408
 1292SOL     OW 5165   3.478   4.138   4.076 -0.2003 -0.0234 -0.1836
 1292SOL    HW1 5166   3.538   4.124   4.003  0.0149 -0.0818  0.0027
 1292SOL    HW2 5167   3.442   4.225   4.062  0.4979  0.3201  0.1054
 1292SOL     MW 5168   3.481   4.147   4.065 -0.0833  0.0131 -0.1227
 1293SOL     OW 5169   4.716   4.093   2.578 -0.2576  0.2888 -0.5107
 1293SOL    HW1 5170   4.647   4.087   2.644  1.3966 -2.3575  1.2048
 1293SOL    HW2 5171   4.714   4.008   2.534  1.0645  0.6400 -1.2971
 1293SOL     MW 5172   4.707   4.081   2.581  0.1234 -0.0050 -0.3918
 1294SOL     OW 5173   0.377   3.709   0.151  0.0359  0.1673  0.1695
 1294SOL    HW1 5174   0.467   3.741   0.154  0.7886 -1.0552 -3.7086
 1294SOL    HW2 5175   0.325   3.784   0.122  0.1189  0.3498  0.4864
 1294SOL     MW 5176   0.382   3.722   0.148  0.1429  0.0342 -0.2864
 1295SOL     OW 5177   0.180   3.074   4.737  0.3454  0.0024  0.2820
 1295SOL    HW1 5178   0.180   3.151   4.793  0.1384 -0.0265  0.3207
 1295SOL    HW2 5179   0.268   3.037   4.748 -0.0643 -0.6566  1.4919
 1295SOL     MW 5180   0.191   3.079   4.745  0.2665 -0.0856  0.4418
 1296SOL     OW 5181   4.934   4.586   4.106 -0.4600  0.5772  0.2486
 1296SOL    HW1 5182   4.953   4.494   4.124  0.1583  0.5158 -0.6784
 1296SOL    HW2 5183   4.843   4.597   4.133 -0.3262 -0.1251  1.0223
 1296SOL     MW 5184   4.924   4.575   4.112 -0.3637  0.4794  0.2290
 1297SOL     OW 5185   3.831   3.700   0.123 -0.0485  0.4369 -0.3969
 1297SOL    HW1 5186   3.811   3.652   0.203 -1.1182 -0.4661 -1.1820
 1297SOL    HW2 5187   3.840   3.791   0.151  0.1267  0.0635  0.8156
 1297SOL     MW 5188   3.830   3.706   0.137 -0.1630  0.2735 -0.3422
 1298SOL     OW 5189   2.527   0.804   1.083 -0.4607  0.1058 -0.3415
 1298SOL    HW1 5190   2.576   0.807   1.165  1.7617 -1.1331 -1.5280
 1298SOL    HW2 5191   2.498   0.894   1.070 -2.3263  0.0651  2.5420
 1298SOL     MW 5192   2.530   0.816   1.092 -0.4150 -0.0580 -0.1243
 1299SOL     OW 5193   1.062   3.096   1.511 -0.3636  0.0342 -0.2289
 1299SOL    HW1 5194   0.972   3.064   1.504 -0.2981 -0.6080  1.6019
 1299SOL    HW2 5195   1.060   3.181   1.466 -2.3279  0.8574  1.2532
 1299SOL     MW 5196   1.050   3.103   1.504 -0.6066  0.0574  0.1952
 1300SOL     OW 5197   4.939   3.546   3.193 -0.1960  0.1565  0.1094
 1300SOL    HW1 5198   5.023   3.544   3.240 -0.6681 -0.4889  0.9296
 1300SOL    HW2 5199   4.958   3.503   3.109  0.0692 -0.8475  0.6687
 1300SOL     MW 5200   4.952   3.541   3.188 -0.2225 -0.0547  0.2860
 1301SOL     OW 5201   0.196   4.635   3.412 -0.3589  0.4868 -0.2470
 1301SOL    HW1 5202   0.174   4.611   3.322 -0.6792  1.0525 -0.3210
 1301SOL    HW2 5203   0.121   4.686   3.442 -1.2284 -1.4386  1.0588
 1301SOL     MW 5204   0.184   4.638   3.404 -0.5112  0.3128 -0.0893
 1302SOL     OW 5205   3.084   5.072   1.491  0.2920  0.5219  0.1727
 1302SOL    HW1 5206   3.033   5.062   1.411  1.3380 -2.0947 -0.2758
 1302SOL    HW2 5207   3.175   5.065   1.462  0.7383  0.6737  1.4653
 1302SOL     MW 5208   3.089   5.070   1.477  0.4830  0.2064  0.2808
 1303SOL     OW 5209   2.964   3.784   1.457  0.4153 -0.0253 -0.2758
 1303SOL    HW1 5210   2.882   3.770   1.409  0.4737  1.5628 -0.8651
 1303SOL    HW2 5211   3.032   3.749   1.400  0.5479  2.3861 -1.6996
 1303SOL     MW 5212   2.962   3.777   1.444  0.4397  0.4867 -0.5335
 1304SOL     OW 5213   2.720   2.092   3.897 -0.0576 -0.0830  0.3105
 1304SOL    HW1 5214   2.634   2.083   3.857  0.5478 -1.5932 -0.7744
 1304SOL    HW2 5215   2.712   2.166   3.957 -1.2331  1.8020 -2.0315
 1304SOL     MW 5216   2.708   2.100   3.900 -0.1306 -0.0350 -0.1282
 1305SOL     OW 5217   2.718   3.118   5.386 -0.5551  0.6617  0.7287
 1305SOL    HW1 5218   2.696   3.065   5.463  0.0379 -0.8623 -0.1189
 1305SOL    HW2 5219   2.805   3.152   5.406 -0.6376  0.7409  0.9656
 1305SOL     MW 5220   2.726   3.116   5.399 -0.4897  0.4767  0.6505
 1306SOL     OW 5221   1.838   0.824   4.364  0.8385 -0.2977  0.1124
 1306SOL    HW1 5222   1.927   0.857   4.348 -0.0885  4.0801  2.4516
 1306SOL    HW2 5223   1.782   0.879   4.309 -0.5790 -2.1320 -0.3631
 1306SOL     MW 5224   1.842   0.835   4.354  0.5384  0.0279  0.3510
 1307SOL     OW 5225   3.330   1.023   3.703  0.0101 -0.2348 -0.5746
 1307SOL    HW1 5226   3.308   0.966   3.629  0.0843 -1.9356  0.6458
 1307SOL    HW2 5227   3.366   0.963   3.768  2.1714  1.5340 -0.0287
 1307SOL     MW 5228   3.332   1.008   3.702  0.2963 -0.2261 -0.3485
 1308SOL     OW 5229   3.253   1.302   3.328  0.0600  0.2299  0.0749
 1308SOL    HW1 5230   3.281   1.211   3.315  0.8634  0.4672  0.0674
 1308SOL    HW2 5231   3.334   1.348   3.349 -0.2787  1.0234 -0.3341
 1308SOL     MW 5232   3.267   1.296   3.329  0.1195  0.3618  0.0216
 1309SOL     OW 5233   1.395   2.903   3.557 -0.8458  0.3176 -0.1030
 1309SOL    HW1 5234   1.359   2.868   3.638 -0.7240  0.0344 -0.1710
 1309SOL    HW2 5235   1.426   2.826   3.509  1.0621  0.6519  0.5130
 1309SOL     MW 5236   1.394   2.889   3.561 -0.5860  0.3242 -0.0329
 1310SOL     OW 5237   1.099   0.956   0.871  0.6458 -0.4717 -0.1801
 1310SOL    HW1 5238   1.056   0.929   0.952  0.8546 -0.1429  0.0451
 1310SOL    HW2 5239   1.182   0.996   0.899 -0.7911  2.8815 -0.2244
 1310SOL     MW 5240   1.104   0.958   0.885  0.4886 -0.0004 -0.1569
 1311SOL     OW 5241   3.023   4.442   4.994  0.0081  0.0478 -0.5622
 1311SOL    HW1 5242   3.101   4.413   5.041 -1.1456 -2.3641  0.0201
 1311SOL    HW2 5243   3.035   4.410   4.904  0.4313  1.1780 -0.9216
 1311SOL     MW 5244   3.034   4.434   4.988 -0.0854 -0.1163 -0.5337
 1312SOL     OW 5245   3.176   2.495   0.917 -0.3521  0.2257 -0.0519
 1312SOL    HW1 5246   3.222   2.430   0.863 -1.3905 -1.8902  1.4633
 1312SOL    HW2 5247   3.087   2.498   0.881 -0.4881  0.3096  0.2845
 1312SOL     MW 5248   3.170   2.487   0.905 -0.5025 -0.0344  0.1851
 1313SOL     OW 5249   1.950   4.219   4.649  0.1382  0.0283  0.0957
 1313SOL    HW1 5250   1.910   4.197   4.565  0.0586  0.6436 -0.0306
 1313SOL    HW2 5251   1.998   4.300   4.632 -0.4943  0.5687  0.8348
 1313SOL     MW 5252   1.951   4.226   4.636  0.0470  0.1763  0.1742
 1314SOL     OW 5253   1.785   1.289   4.301  0.3057 -0.6170  0.3339
 1314SOL    HW1 5254   1.801   1.267   4.393  1.2058 -1.6148 -0.0423
 1314SOL    HW2 5255   1.704   1.241   4.279  0.3582 -0.7696  0.4685
 1314SOL     MW 5256   1.776   1.280   4.310  0.4277 -0.7643  0.3030
 1315SOL     OW 5257   2.280   0.635   4.501 -0.1897 -0.0962 -0.0068
 1315SOL    HW1 5258   2.267   0.662   4.410  1.5341 -0.5270 -0.4205
 1315SOL    HW2 5259   2.239   0.705   4.552 -0.0782  0.8159 -1.1107
 1315SOL     MW 5260   2.273   0.648   4.496  0.0452 -0.0346 -0.2010
 1316SOL     OW 5261   4.631   1.570   4.804 -0.2477 -0.7913  0.0186
 1316SOL    HW1 5262   4.691   1.570   4.729  0.2523 -0.6380  0.4159
 1316SOL    HW2 5263   4.559   1.627   4.776  0.3236 -0.0770 -0.0446
 1316SOL     MW 5264   4.630   1.578   4.791 -0.1106 -0.6803  0.0614
 1317SOL     OW 5265   4.098   4.173   4.026 -0.4098  0.2279  0.2215
 1317SOL    HW1 5266   4.122   4.164   3.934  0.2263  0.1019  0.3950
 1317SOL    HW2 5267   4.037   4.101   4.042 -0.0903 -0.0882  0.0371
 1317SOL     MW 5268   4.094   4.162   4.017 -0.2875  0.1713  0.2201
 1318SOL     OW 5269   5.429   2.910   2.152 -0.2539 -0.1705  0.3230
 1318SOL    HW1 5270   5.515   2.867   2.154  0.5436  1.3506  0.0099
 1318SOL    HW2 5271   5.449   3.002   2.136 -2.0219 -0.0299 -1.4164
 1318SOL     MW 5272   5.443   2.916   2.150 -0.3782  0.0422  0.0603
 1319SOL     OW 5273   4.365   2.406   2.330 -0.1123 -0.2034 -0.0809
 1319SOL    HW1 5274   4.410   2.468   2.272  1.3756 -1.6428 -0.5372
 1319SOL    HW2 5275   4.301   2.363   2.273 -0.9189  0.6526  0.1581
 1319SOL     MW 5276   4.363   2.409   2.315 -0.0251 -0.2781 -0.1087
 1320SOL     OW 5277   4.057   4.501   5.120  0.3009 -0.5648  0.0365
 1320SOL    HW1 5278   4.067   4.435   5.051  1.9484 -0.6150  0.2797
 1320SOL    HW2 5279   3.993   4.563   5.084 -1.0440 -2.0963 -0.3141
 1320SOL     MW 5280   4.050   4.501   5.106  0.3397 -0.7673  0.0228
 1321SOL     OW 5281   4.321   4.027   0.832 -0.1863  0.3461 -0.9785
 1321SOL    HW1 5282   4.226   4.038   0.835 -0.0457  1.6284 -0.0736
 1321SOL    HW2 5283   4.337   3.942   0.872 -0.8318  1.3793  1.6966
 1321SOL     MW 5284   4.311   4.018   0.838 -0.2510  0.6425 -0.5202
 1322SOL     OW 5285   0.894   0.315   2.525  0.1488  0.0289 -0.5488
 1322SOL    HW1 5286   0.823   0.252   2.517  0.1563  0.2701 -3.5001
 1322SOL    HW2 5287   0.938   0.314   2.440  1.9113  1.9676  0.2320
 1322SOL     MW 5288   0.891   0.307   2.513  0.3754  0.3080 -0.8267
 1323SOL     OW 5289   2.361   0.708   0.635  0.4774  0.0042 -0.0629
 1323SOL    HW1 5290   2.445   0.663   0.640 -0.4893 -2.3350 -2.4826
 1323SOL    HW2 5291   2.305   0.663   0.698  0.2978 -0.3261 -0.4511
 1323SOL     MW 5292   2.365   0.697   0.643  0.3306 -0.3375 -0.4224
 1324SOL     OW 5293   1.269   1.867   5.157  0.1569 -0.1924  0.0445
 1324SOL    HW1 5294   1.363   1.880   5.144  0.0818  0.3416  0.0215
 1324SOL    HW2 5295   1.263   1.809   5.233  0.5238 -0.9015 -0.4504
 1324SOL     MW 5296   1.280   1.861   5.165  0.1943 -0.2148 -0.0218
 1325SOL     OW 5297   2.877   3.547   1.165 -0.0626 -0.4129 -0.1377
 1325SOL    HW1 5298   2.948   3.607   1.141  0.5222  0.1915  2.7785
 1325SOL    HW2 5299   2.903   3.463   1.128  2.2168 -0.2117  0.8743
 1325SOL     MW 5300   2.889   3.544   1.157  0.3041 -0.3097  0.3651
 1326SOL     OW 5301   5.216   2.202   5.315 -0.2159 -0.2043  0.0786
 1326SOL    HW1 5302   5.211   2.297   5.325 -0.5841 -0.2825  0.7115
 1326SOL    HW2 5303   5.250   2.189   5.226  1.9806  0.5425  0.7245
 1326SOL     MW 5304   5.220   2.213   5.305  0.0181 -0.1187  0.2423
 1327SOL     OW 5305   4.001   1.990   1.658 -0.4964  0.0678 -0.6918
 1327SOL    HW1 5306   4.040   1.943   1.732 -1.1500 -0.3582 -0.6088
 1327SOL    HW2 5307   3.910   1.960   1.656 -0.4442 -0.0637 -1.7773
 1327SOL     MW 5308   3.994   1.980   1.667 -0.5734 -0.0035 -0.8201
 1328SOL     OW 5309   2.713   1.641   0.768 -0.4262  0.6509  0.0632
 1328SOL    HW1 5310   2.712   1.546   0.771 -0.9100  0.5822 -1.4478
 1328SOL    HW2 5311   2.760   1.667   0.847 -0.0958 -0.8409  0.3883
 1328SOL     MW 5312   2.719   1.632   0.778 -0.4459  0.4511 -0.0886
 1329SOL     OW 5313   3.867   3.591   3.469 -0.1496  0.3757  0.5080
 1329SOL    HW1 5314   3.868   3.535   3.547  1.6698 -0.9464 -0.3738
 1329SOL    HW2 5315   3.908   3.537   3.401 -0.1779  2.0864 -0.9365
 1329SOL     MW 5316   3.873   3.577   3.471  0.0796  0.4255  0.2102
 1330SOL     OW 5317   4.496   4.926   1.222 -0.5314 -0.0880  0.0748
 1330SOL    HW1 5318   4.448   4.947   1.143 -0.2995 -1.2030 -0.3874
 1330SOL    HW2 5319   4.472   4.994   1.285 -3.3466 -1.0285  0.1323
 1330SOL     MW 5320   4.487   4.937   1.220 -0.8621 -0.3511  0.0230
 1331SOL     OW 5321   1.420   2.767   1.896  0.0050  0.1366  0.5591
 1331SOL    HW1 5322   1.359   2.744   1.826 -0.9943  0.7703  1.2120
 1331SOL    HW2 5323   1.425   2.689   1.951 -0.5499  0.2222  0.7370
 1331SOL     MW 5324   1.413   2.754   1.894 -0.1939  0.2287  0.6654
 1332SOL     OW 5325   4.728   4.639   4.498 -0.1411  0.2676  0.1166
 1332SOL    HW1 5326   4.782   4.717   4.511  1.2663 -0.7381  0.4880
 1332SOL    HW2 5327   4.701   4.644   4.407 -0.9316  1.7070  0.4016
 1332SOL     MW 5328   4.731   4.650   4.488 -0.0621  0.3231  0.2007
 1333SOL     OW 5329   1.298   4.437   4.169 -0.5233  0.4571 -0.5858
 1333SOL    HW1 5330   1.302   4.512   4.228  0.5042  0.7831 -1.0467
 1333SOL    HW2 5331   1.307   4.475   4.082  2.6870 -0.3387 -0.7230
 1333SOL     MW 5332   1.300   4.452   4.166  0.0192  0.3969 -0.6624
 1334SOL     OW 5333   3.315   4.009   2.795 -0.6149 -0.8135 -0.2522
 1334SOL    HW1 5334   3.302   4.092   2.749  2.5805  0.9067  1.6212
 1334SOL    HW2 5335   3.243   4.006   2.858 -1.1676  0.1914 -0.8051
 1334SOL     MW 5336   3.304   4.019   2.797 -0.2766 -0.4647 -0.0831
 1335SOL     OW 5337   2.583   2.386   1.165  0.0684  0.1365 -0.4273
 1335SOL    HW1 5338   2.499   2.431   1.155 -0.8644 -1.5050 -0.2729
 1335SOL    HW2 5339   2.648   2.457   1.165 -0.9985  1.3002 -3.6258
 1335SOL     MW 5340   2.581   2.401   1.164 -0.1876  0.0754 -0.8169
 1336SOL     OW 5341   4.868   4.177   4.151  0.1479 -0.2247 -0.0604
 1336SOL    HW1 5342   4.912   4.176   4.066 -0.3741  1.6982 -0.3985
 1336SOL    HW2 5343   4.914   4.244   4.201  0.4180 -1.2970  1.2004
 1336SOL     MW 5344   4.879   4.185   4.146  0.1157 -0.1158  0.0577
 1337SOL     OW 5345   4.348   1.968   2.276  0.2634 -0.2564  0.8089
 1337SOL    HW1 5346   4.316   2.001   2.360  0.3108  1.9594  0.0177
 1337SOL    HW2 5347   4.426   2.021   2.257  0.9130 -1.4843 -0.1252
 1337SOL     MW 5348   4.354   1.979   2.284  0.3526 -0.1299  0.5880
 1338SOL     OW 5349   1.934   1.049   1.932  0.3394  0.1082 -0.0196
 1338SOL    HW1 5350   1.987   1.049   2.012  1.3102 -0.5417 -0.6406
 1338SOL    HW2 5351   1.997   1.066   1.862 -0.1880 -1.0661 -0.8111
 1338SOL     MW 5352   1.949   1.051   1.933  0.3962 -0.1254 -0.2004
 1339SOL     OW 5353   4.649   1.336   5.181  0.2988  0.0993  0.3012
 1339SOL    HW1 5354   4.629   1.429   5.179 -1.3364 -0.2186 -0.0966
 1339SOL    HW2 5355   4.641   1.307   5.090  1.3571 -0.3242  0.3333
 1339SOL     MW 5356   4.645   1.344   5.169  0.2250  0.0044  0.2544
 1340SOL     OW 5357   4.727   1.631   1.213  0.2380 -0.7627 -0.2834
 1340SOL    HW1 5358   4.777   1.557   1.248 -1.1165 -1.5634  0.0234
 1340SOL    HW2 5359   4.688   1.598   1.132 -0.7487 -0.5318  0.0909
 1340SOL     MW 5360   4.729   1.618   1.207 -0.0617 -0.8357 -0.1962
 1341SOL     OW 5361   5.008   2.762   1.736  0.4464 -0.7138 -0.3033
 1341SOL    HW1 5362   4.931   2.777   1.681  0.5576 -0.0425 -0.2853
 1341SOL    HW2 5363   4.978   2.781   1.825  0.4656 -1.0740 -0.2183
 1341SOL     MW 5364   4.994   2.767   1.740  0.4631 -0.6740 -0.2901
 1342SOL     OW 5365   1.593   5.270   5.095 -0.0398  0.7104  0.6447
 1342SOL    HW1 5366   1.498   5.263   5.084  0.0020  0.4923  0.4228
 1342SOL    HW2 5367   1.624   5.179   5.089  0.2121  0.8107  0.4625
 1342SOL     MW 5368   1.585   5.257   5.093 -0.0022  0.6953  0.5930
 1343SOL     OW 5369   4.848   1.725   0.771  0.0220 -0.1215  0.0241
 1343SOL    HW1 5370   4.867   1.741   0.863 -1.1260 -0.9835  0.4209
 1343SOL    HW2 5371   4.876   1.635   0.756  1.6036  0.4666 -0.8846
 1343SOL     MW 5372   4.854   1.716   0.781  0.0775 -0.1566 -0.0414
 1344SOL     OW 5373   1.906   1.018   1.515 -0.1681  0.4221  0.7533
 1344SOL    HW1 5374   1.850   1.082   1.471 -1.2588 -0.1325  1.3170
 1344SOL    HW2 5375   1.950   0.972   1.443 -1.5373 -0.1237  0.2302
 1344SOL     MW 5376   1.905   1.020   1.500 -0.4830  0.2812  0.7585
 1345SOL     OW 5377   5.242   2.973   3.244  0.0727 -0.3400  0.5207
 1345SOL    HW1 5378   5.220   2.916   3.318  1.0679 -0.4128  0.7719
 1345SOL    HW2 5379   5.334   2.955   3.227 -0.1510 -0.3578 -0.7775
 1345SOL     MW 5380   5.251   2.963   3.251  0.1715 -0.3516  0.3867
 1346SOL     OW 5381   4.850   5.032   0.672 -0.2676  0.2330  0.2709
 1346SOL    HW1 5382   4.871   4.972   0.743 -1.7272 -0.3903  0.2099
 1346SOL    HW2 5383   4.808   5.107   0.715 -1.2334 -0.1847  0.0656
 1346SOL     MW 5384   4.848   5.034   0.686 -0.5781  0.0998  0.2368
 1347SOL     OW 5385   0.112   3.759   1.531 -0.2848  0.2690  0.0316
 1347SOL    HW1 5386   0.056   3.820   1.483 -0.1068  0.5675  0.2021
 1347SOL    HW2 5387   0.063   3.676   1.531 -0.7456  0.5408  0.2170
 1347SOL     MW 5388   0.098   3.756   1.525 -0.3210  0.3420  0.0772
 1348SOL     OW 5389   4.265   0.931   2.535 -0.8256  0.3327 -0.5103
 1348SOL    HW1 5390   4.239   0.899   2.449  0.7327 -0.8989 -0.5847
 1348SOL    HW2 5391   4.340   0.988   2.518 -1.8432  1.8402 -0.1186
 1348SOL     MW 5392   4.271   0.934   2.522 -0.7564  0.3681 -0.4697
 1349SOL     OW 5393   3.714   1.383   2.138  0.3683 -0.4039  0.2315
 1349SOL    HW1 5394   3.766   1.338   2.204  0.2935 -0.5456  0.1948
 1349SOL    HW2 5395   3.627   1.393   2.178  0.3313 -0.4635  0.1650
 1349SOL     MW 5396   3.709   1.379   2.152  0.3540 -0.4297  0.2183
 1350SOL     OW 5397   2.652   1.290   2.259 -0.4119  0.0750  0.1231
 1350SOL    HW1 5398   2.605   1.230   2.316 -0.3195  0.6414  0.8164
 1350SOL    HW2 5399   2.629   1.263   2.170  0.9447 -2.0708  0.3347
 1350SOL     MW 5400   2.643   1.279   2.255 -0.2264 -0.1272  0.2389
 1351SOL     OW 5401   0.956   1.358   1.078 -0.3392 -0.3094  0.0347
 1351SOL    HW1 5402   0.961   1.320   1.165 -0.7694 -0.0569  0.1762
 1351SOL    HW2 5403   1.041   1.399   1.064 -1.1672  2.1245  1.5146
 1351SOL     MW 5404   0.968   1.359   1.087 -0.5003  0.0345  0.2422
 1352SOL     OW 5405   0.144   2.633   2.443 -0.1848 -0.1782 -0.4821
 1352SOL    HW1 5406   0.228   2.605   2.480 -1.1440 -0.6984  1.4765
 1352SOL    HW2 5407   0.108   2.554   2.402 -0.7586 -0.6433  0.8402
 1352SOL     MW 5408   0.150   2.619   2.443 -0.3811 -0.3043 -0.0621
 1353SOL     OW 5409   0.723   1.025   1.069 -0.1020  0.2526 -0.0392
 1353SOL    HW1 5410   0.755   1.106   1.029 -0.9986 -0.3064 -1.9805
 1353SOL    HW2 5411   0.679   0.979   0.998  0.4914 -2.0227  0.9882
 1353SOL     MW 5412   0.721   1.030   1.055 -0.1408 -0.1102 -0.1562
 1354SOL     OW 5413   5.446   4.125   4.335 -0.1818  0.0118 -0.2503
 1354SOL    HW1 5414   5.527   4.167   4.365 -0.7275  1.3879 -0.6642
 1354SOL    HW2 5415   5.393   4.117   4.414 -1.1449  2.5750 -0.5518
 1354SOL     MW 5416   5.450   4.129   4.349 -0.3749  0.5161 -0.3419
 1355SOL     OW 5417   0.832   3.729   2.194 -0.6478 -0.1467 -0.0684
 1355SOL    HW1 5418   0.788   3.647   2.171  0.9232 -2.1618  3.3246
 1355SOL    HW2 5419   0.918   3.722   2.153 -0.6031 -0.0946  0.0159
 1355SOL     MW 5420   0.837   3.718   2.186 -0.4410 -0.3980  0.3768
 1356SOL     OW 5421   2.527   1.494   1.027  0.2885  0.0512  0.4270
 1356SOL    HW1 5422   2.508   1.412   1.072 -1.5416  0.6666  0.8737
 1356SOL    HW2 5423   2.512   1.562   1.094  2.4054  0.7545  0.2645
 1356SOL     MW 5424   2.523   1.492   1.041  0.3252  0.2200  0.4634
 1357SOL     OW 5425   0.094   4.594   4.766  0.0191 -0.1259  0.1450
 1357SOL    HW1 5426   0.171   4.557   4.810  0.7716 -0.9626 -1.7698
 1357SOL    HW2 5427   0.130   4.637   4.688 -1.3211  0.8537  0.0452
 1357SOL     MW 5428   0.109   4.595   4.762 -0.0561 -0.1076 -0.1129
 1358SOL     OW 5429   3.566   2.996   5.147 -0.4435  0.0943 -0.1668
 1358SOL    HW1 5430   3.562   3.084   5.109  0.3128  0.8517  1.4018
 1358SOL    HW2 5431   3.651   2.992   5.190 -0.2942 -1.5798 -0.5474
 1358SOL     MW 5432   3.576   3.007   5.148 -0.3276 -0.0231 -0.0148
 1359SOL     OW 5433   0.861   4.349   3.459  0.0957 -0.0086  0.5461
 1359SOL    HW1 5434   0.852   4.428   3.406  0.5302  0.9519  1.8415
 1359SOL    HW2 5435   0.887   4.281   3.397 -3.6420 -0.0592 -1.2302
 1359SOL     MW 5436   0.863   4.350   3.445 -0.3272  0.1079  0.4845
 1360SOL     OW 5437   0.321   4.336   3.994 -0.0048  0.1822 -0.2173
 1360SOL    HW1 5438   0.414   4.341   4.016 -0.1749 -0.4018  0.6572
 1360SOL    HW2 5439   0.318   4.356   3.900  0.9763  0.4303 -0.2037
 1360SOL     MW 5440   0.333   4.339   3.985  0.0990  0.1392 -0.1036
 1361SOL     OW 5441   5.349   1.289   5.155  0.2609  0.0259 -0.1386
 1361SOL    HW1 5442   5.415   1.267   5.221  0.9349 -0.0041 -0.8102
 1361SOL    HW2 5443   5.277   1.230   5.173 -0.4297  1.3600  1.8506
 1361SOL     MW 5444   5.348   1.279   5.166  0.2588  0.1928  0.0301
 1362SOL     OW 5445   2.763   2.290   3.233  0.1722  0.2954  0.1604
 1362SOL    HW1 5446   2.800   2.219   3.180  1.0267  1.9795 -1.6122
 1362SOL    HW2 5447   2.677   2.307   3.195  0.1873  0.5414  0.2323
 1362SOL     MW 5448   2.757   2.283   3.222  0.2835  0.5425 -0.0573
 1363SOL     OW 5449   4.169   3.339   3.616 -0.5538  0.3399  0.5911
 1363SOL    HW1 5450   4.218   3.262   3.585 -0.4625  1.1974 -1.5386
 1363SOL    HW2 5451   4.226   3.379   3.681  0.5046 -0.0504 -0.0656
 1363SOL     MW 5452   4.182   3.334   3.620 -0.4066  0.3997  0.2344
 1364SOL     OW 5453   1.939   4.524   5.076 -0.0709  0.0774 -0.5439
 1364SOL    HW1 5454   1.863   4.488   5.030 -0.9269 -0.8157  1.4385
 1364SOL    HW2 5455   1.908   4.608   5.110 -0.6546 -0.8166  1.2870
 1364SOL     MW 5456   1.925   4.530   5.075 -0.2552 -0.1514 -0.0558
 1365SOL     OW 5457   4.108   2.384   1.272  0.0444 -0.0865  0.4208
 1365SOL    HW1 5458   4.098   2.334   1.354 -0.8072  0.1149  0.4480
 1365SOL    HW2 5459   4.071   2.327   1.205 -1.2170  0.5944  0.4936
 1365SOL     MW 5460   4.102   2.370   1.274 -0.2261  0.0264  0.4336
 1366SOL     OW 5461   3.248   3.711   0.581 -0.1117  0.3046 -0.1428
 1366SOL    HW1 5462   3.256   3.681   0.671 -0.0092 -0.6330 -0.4556
 1366SOL    HW2 5463   3.300   3.792   0.578  2.5014 -1.2390 -0.0651
 1366SOL     MW 5464   3.256   3.718   0.592  0.2359 -0.0131 -0.1729
 1367SOL     OW 5465   1.063   1.661   1.839  0.2587 -0.4695  0.0828
 1367SOL    HW1 5466   0.984   1.623   1.800 -0.7852  0.8795  0.7910
 1367SOL    HW2 5467   1.133   1.636   1.779 -0.6610 -1.8379 -0.4896
 1367SOL     MW 5468   1.062   1.653   1.826  0.0073 -0.4720  0.1002
 1368SOL     OW 5469   3.276   1.306   0.236 -0.0958 -0.0923 -0.5055
 1368SOL    HW1 5470   3.314   1.388   0.267  0.8981 -0.5723 -0.4202
 1368SOL    HW2 5471   3.226   1.273   0.311 -0.0171  0.1499 -0.3472
 1368SOL     MW 5472   3.274   1.312   0.250  0.0415 -0.1227 -0.4743
 1369SOL     OW 5473   1.028   1.552   5.289 -0.4576 -0.0765 -0.2140
 1369SOL    HW1 5474   1.065   1.540   5.202 -0.5788  0.5695 -0.3577
 1369SOL    HW2 5475   1.032   1.646   5.305  2.0599 -0.3827  1.5863
 1369SOL     MW 5476   1.033   1.562   5.280 -0.1508 -0.0330 -0.0020
 1370SOL     OW 5477   5.342   2.958   0.797 -0.2289  0.3796  0.2917
 1370SOL    HW1 5478   5.406   2.912   0.742 -1.1205  0.0821 -0.5226
 1370SOL    HW2 5479   5.328   2.900   0.872 -0.0419  0.1339  0.1362
 1370SOL     MW 5480   5.348   2.945   0.800 -0.3191  0.3100  0.1676
 1371SOL     OW 5481   1.750   5.331   4.274  0.0480  0.3651  0.7097
 1371SOL    HW1 5482   1.775   5.279   4.198 -0.2104  1.6200 -0.2532
 1371SOL    HW2 5483   1.784   5.281   4.349  0.2392 -0.9242 -0.2032
 1371SOL     MW 5484   1.757   5.318   4.274  0.0394  0.3607  0.4696
 1372SOL     OW 5485   3.594   3.544   2.374  0.0248  0.4734 -0.3556
 1372SOL    HW1 5486   3.611   3.572   2.464  1.9859  1.0822 -0.8697
 1372SOL    HW2 5487   3.673   3.496   2.348 -1.1632 -1.0861 -1.2419
 1372SOL     MW 5488   3.606   3.541   2.382  0.1238  0.3517 -0.5348
 1373SOL     OW 5489   5.315   0.283   5.309 -0.0528  0.1443 -0.2916
 1373SOL    HW1 5490   5.317   0.216   5.240  0.4835 -0.8660  0.6743
 1373SOL    HW2 5491   5.223   0.309   5.314 -0.4051 -1.0319 -0.2242
 1373SOL     MW 5492   5.304   0.277   5.300 -0.0293 -0.1356 -0.1594
 1374SOL     OW 5493   2.669   0.074   0.277  0.2087  0.1036  0.2890
 1374SOL    HW1 5494   2.714  -0.001   0.238 -1.5334 -1.6323  1.4762
 1374SOL    HW2 5495   2.728   0.104   0.347  1.2189  0.3131 -0.6329
 1374SOL     MW 5496   2.683   0.069   0.281  0.1150 -0.0918  0.3229
 1375SOL     OW 5497   0.598   1.234   3.233 -0.3535 -0.2476 -0.5839
 1375SOL    HW1 5498   0.600   1.216   3.327 -1.5047 -0.2190 -0.5454
 1375SOL    HW2 5499   0.534   1.172   3.198  0.0455 -0.2368 -1.3519
 1375SOL     MW 5500   0.590   1.224   3.240 -0.4498 -0.2425 -0.6773
 1376SOL     OW 5501   1.021   0.703   5.048  0.6843  0.1265  0.5825
 1376SOL    HW1 5502   0.931   0.689   5.076  0.0232  1.7907 -0.5156
 1376SOL    HW2 5503   1.056   0.615   5.033 -0.6981 -0.5545  1.1879
 1376SOL     MW 5504   1.014   0.690   5.049  0.4227  0.2523  0.5195
 1377SOL     OW 5505   4.258   3.523   0.903  0.1846 -0.4251  0.0359
 1377SOL    HW1 5506   4.200   3.465   0.854 -2.3221  2.0515 -0.1763
 1377SOL    HW2 5507   4.213   3.539   0.985  0.8107  1.1345  0.1147
 1377SOL     MW 5508   4.245   3.518   0.907 -0.0562  0.0916  0.0188
 1378SOL     OW 5509   4.294   0.251   1.207 -0.3542  0.0568  0.5824
 1378SOL    HW1 5510   4.249   0.297   1.279 -0.4326 -0.0432  0.5982
 1378SOL    HW2 5511   4.248   0.167   1.200 -0.2666  0.0154  0.4974
 1378SOL     MW 5512   4.282   0.246   1.216 -0.3531  0.0387  0.5736
 1379SOL     OW 5513   1.808   0.814   1.640  0.0410 -0.2190  0.3708
 1379SOL    HW1 5514   1.843   0.884   1.584  0.6467  0.3317  1.4096
 1379SOL    HW2 5515   1.885   0.762   1.663 -0.5731 -2.0286 -1.4260
 1379SOL     MW 5516   1.822   0.817   1.635  0.0399 -0.3802  0.2738
 1380SOL     OW 5517   5.148   3.589   2.436 -0.7663 -0.1232 -0.2020
 1380SOL    HW1 5518   5.133   3.585   2.342 -0.8476  3.6164 -0.4980
 1380SOL    HW2 5519   5.220   3.528   2.452 -0.9416 -1.0639 -2.6102
 1380SOL     MW 5520   5.155   3.581   2.426 -0.7992  0.2351 -0.5482
 1381SOL     OW 5521   5.064   1.767   2.975  0.1285 -0.0350 -0.3652
 1381SOL    HW1 5522   5.057   1.672   2.986  1.1023 -0.1373 -0.5638
 1381SOL    HW2 5523   4.977   1.794   2.945  0.3552 -1.1228 -2.1206
 1381SOL     MW 5524   5.052   1.759   2.972  0.2821 -0.1873 -0.6153
 1382SOL     OW 5525   1.539   4.869   1.734 -0.2460  0.0626  0.6016
 1382SOL    HW1 5526   1.572   4.814   1.805 -1.6905  0.3218  1.5219
 1382SOL    HW2 5527   1.455   4.901   1.767 -0.5496  0.8639 -0.9053
 1382SOL     MW 5528   1.532   4.866   1.748 -0.4698  0.1984  0.5265
 1383SOL     OW 5529   5.469   2.419   0.478 -0.3292  0.6202  0.4660
 1383SOL    HW1 5530   5.400   2.464   0.428 -0.2518 -0.0717 -0.2675
 1383SOL    HW2 5531   5.421   2.367   0.543 -0.4348  1.3243  0.9738
 1383SOL     MW 5532   5.454   2.418   0.480 -0.3328  0.6217  0.4371
 1384SOL     OW 5533   1.233   1.978   2.451 -0.0098 -0.1889 -0.3433
 1384SOL    HW1 5534   1.320   1.941   2.472 -0.9518 -1.6731  1.2751
 1384SOL    HW2 5535   1.194   1.914   2.391  0.2691  0.8630 -1.6826
 1384SOL     MW 5536   1.239   1.965   2.446 -0.0947 -0.2442 -0.3076
 1385SOL     OW 5537   0.707   4.307   2.770 -0.0501  0.3007 -0.0788
 1385SOL    HW1 5538   0.626   4.302   2.720  0.4481  2.0022 -1.1146
 1385SOL    HW2 5539   0.774   4.274   2.710  0.0512 -1.3060  0.8456
 1385SOL     MW 5540   0.705   4.302   2.756  0.0267  0.3128 -0.0931
 1386SOL     OW 5541   4.888   4.546   5.253 -0.1765  0.2313  0.8786
 1386SOL    HW1 5542   4.887   4.587   5.166  0.0198 -0.2295  0.6610
 1386SOL    HW2 5543   4.901   4.453   5.236 -0.0618  0.1501  1.4089
 1386SOL     MW 5544   4.889   4.540   5.239 -0.1367  0.1619  0.9187
 1387SOL     OW 5545   1.571   2.292   3.107  0.0456  0.4769  0.3503
 1387SOL    HW1 5546   1.485   2.317   3.074  0.8392  2.1001 -0.6580
 1387SOL    HW2 5547   1.575   2.327   3.195  0.5767  2.7624 -0.5150
 1387SOL     MW 5548   1.561   2.299   3.114  0.2152  0.9773  0.1105
 1388SOL     OW 5549   2.592   5.231   2.099  0.0314  0.2508  0.1213
 1388SOL    HW1 5550   2.615   5.283   2.022  1.2315  0.1616  0.4058
 1388SOL    HW2 5551   2.571   5.144   2.063 -1.3806  0.7337 -0.2891
 1388SOL     MW 5552   2.592   5.226   2.084  0.0042  0.3012  0.1052
 1389SOL     OW 5553   5.265   0.555   1.172 -0.2214 -0.0417 -0.2052
 1389SOL    HW1 5554   5.197   0.532   1.108  0.0899  0.0086 -0.5544
 1389SOL    HW2 5555   5.340   0.580   1.120 -0.1327  0.5216  0.1829
 1389SOL     MW 5556   5.266   0.555   1.157 -0.1702  0.0368 -0.2002
 1390SOL     OW 5557   0.526   0.811   0.477  0.2771  0.3148 -0.1625
 1390SOL    HW1 5558   0.531   0.717   0.490  2.1123  0.5221  0.9690
 1390SOL    HW2 5559   0.574   0.848   0.550  0.1316  2.1248 -0.9249
 1390SOL     MW 5560   0.533   0.804   0.488  0.4934  0.5730 -0.1153
 1391SOL     OW 5561   2.289   5.433   3.352  0.3148  0.2661 -0.3651
 1391SOL    HW1 5562   2.253   5.464   3.269 -1.0835 -0.8514 -0.2202
 1391SOL    HW2 5563   2.309   5.513   3.400  0.4126  0.9272 -1.4730
 1391SOL     MW 5564   2.287   5.447   3.348  0.1483  0.2077 -0.4884
 1392SOL     OW 5565   0.860   2.048   4.573 -0.5452 -0.1081 -0.4021
 1392SOL    HW1 5566   0.922   1.976   4.559 -1.6952 -1.6724  1.9202
 1392SOL    HW2 5567   0.779   2.018   4.531 -0.5697  0.5873 -0.8550
 1392SOL     MW 5568   0.858   2.035   4.566 -0.6955 -0.2193 -0.1628
 1393SOL     OW 5569   1.260   3.844   0.208  0.2963  0.4415  0.4789
 1393SOL    HW1 5570   1.253   3.939   0.198  0.3638  0.2469 -2.1644
 1393SOL    HW2 5571   1.176   3.817   0.244 -0.9613  1.2326 -1.6918
 1393SOL     MW 5572   1.248   3.853   0.211  0.1439  0.5179 -0.1374
 1394SOL     OW 5573   3.832   1.282   4.648  0.4253 -0.1220 -0.0476
 1394SOL    HW1 5574   3.812   1.375   4.654 -0.0753 -0.2528  0.3133
 1394SOL    HW2 5575   3.851   1.255   4.738  0.9297 -0.2905 -0.2002
 1394SOL     MW 5576   3.832   1.291   4.660  0.4257 -0.1603 -0.0210
 1395SOL     OW 5577   4.911   1.894   4.703  0.0081  0.6035  0.2864
 1395SOL    HW1 5578   4.955   1.825   4.652 -0.1807  1.3663 -0.9710
 1395SOL    HW2 5579   4.856   1.847   4.765  0.3917 -0.3723 -0.0865
 1395SOL     MW 5580   4.910   1.879   4.704  0.0330  0.5762  0.0777
 1396SOL     OW 5581   1.434   1.224   1.584  0.0568 -0.0752 -0.2559
 1396SOL    HW1 5582   1.432   1.209   1.678 -1.3462 -0.3460 -0.2956
 1396SOL    HW2 5583   1.522   1.255   1.565  0.0801  0.8736  1.2821
 1396SOL     MW 5584   1.445   1.226   1.593 -0.1198  0.0116 -0.0641
 1397SOL     OW 5585   2.123   1.635   3.247  0.1466 -0.0509  0.0674
 1397SOL    HW1 5586   2.200   1.579   3.252 -0.2429 -0.5210  1.1406
 1397SOL    HW2 5587   2.158   1.724   3.243  0.7485 -0.3096 -0.5995
 1397SOL     MW 5588   2.137   1.639   3.247  0.1738 -0.1442  0.1194
 1398SOL     OW 5589   5.372   4.081   2.020  0.4901  0.0763  0.5916
 1398SOL    HW1 5590   5.308   4.149   1.997  0.9948 -0.3061 -2.3104
 1398SOL    HW2 5591   5.336   4.040   2.099 -1.5509  1.4765  0.4730
 1398SOL     MW 5592   5.359   4.085   2.028  0.2935  0.2066  0.2049
 1399SOL     OW 5593   3.253   2.078   4.389  0.5617  0.5637 -0.1235
 1399SOL    HW1 5594   3.335   2.111   4.352 -0.7786  2.1245 -1.8994
 1399SOL    HW2 5595   3.197   2.156   4.397 -0.8385 -0.4828  0.8477
 1399SOL     MW 5596   3.256   2.092   4.385  0.2109  0.6295 -0.2265
 1400SOL     OW 5597   0.183   2.384   1.720 -0.1054  0.0829  0.0559
 1400SOL    HW1 5598   0.180   2.345   1.633 -1.3270  1.1486 -0.4044
 1400SOL    HW2 5599   0.205   2.476   1.705 -0.3205  0.2785  0.8715
 1400SOL     MW 5600   0.186   2.390   1.707 -0.2893  0.2444  0.1014
 1401SOL     OW 5601   0.065   0.864   2.279  0.4000 -0.0364  0.0549
 1401SOL    HW1 5602  -0.004   0.833   2.338  2.0081 -0.8370  1.5882
 1401SOL    HW2 5603   0.078   0.956   2.302 -0.8288  0.4178 -0.9579
 1401SOL     MW 5604   0.058   0.871   2.289  0.4486 -0.0807  0.1215
 1402SOL     OW 5605   4.904   1.523   3.874  0.3569 -0.1919  0.5299
 1402SOL    HW1 5606   4.830   1.560   3.922  0.1766  0.7859 -0.4611
 1402SOL    HW2 5607   4.865   1.462   3.812  0.2955  0.7390 -0.3810
 1402SOL     MW 5608   4.889   1.520   3.872  0.3260  0.0525  0.2864
 1403SOL     OW 5609   4.126   1.909   1.873  0.0704 -0.7051 -0.4488
 1403SOL    HW1 5610   4.190   1.969   1.913 -1.2751  0.7072 -0.3399
 1403SOL    HW2 5611   4.089   1.860   1.946 -1.0104  0.5230 -0.1423
 1403SOL     MW 5612   4.130   1.910   1.887 -0.2402 -0.3671 -0.3956
 1404SOL     OW 5613   2.461   1.359   1.639  0.4981  0.3535 -0.3265
 1404SOL    HW1 5614   2.545   1.390   1.606  0.4228  2.8268  1.5214
 1404SOL    HW2 5615   2.444   1.413   1.717 -2.8476  0.0604 -0.6923
 1404SOL     MW 5616   2.469   1.370   1.645  0.0602  0.6326 -0.1368
 1405SOL     OW 5617   0.576   4.017   4.022 -0.3230  0.2005 -0.4103
 1405SOL    HW1 5618   0.612   4.094   3.978 -1.2213  0.6420 -0.3895
 1405SOL    HW2 5619   0.631   4.004   4.099  0.2956  0.3612 -0.8199
 1405SOL     MW 5620   0.587   4.025   4.026 -0.3588  0.2776 -0.4601
 1406SOL     OW 5621   5.364   2.647   2.861 -0.2417 -0.2519 -0.3363
 1406SOL    HW1 5622   5.286   2.696   2.834  0.2530  0.0308 -1.3101
 1406SOL    HW2 5623   5.428   2.715   2.883 -0.1838 -0.4805  0.2005
 1406SOL     MW 5624   5.362   2.662   2.860 -0.1710 -0.2449 -0.3922
 1407SOL     OW 5625   2.475   2.049   2.743  0.1048  0.1257  0.2271
 1407SOL    HW1 5626   2.504   2.051   2.834 -0.5636 -1.1160  0.4829
 1407SOL    HW2 5627   2.387   2.089   2.745 -0.0055 -0.1137  0.1634
 1407SOL     MW 5628   2.467   2.055   2.755  0.0051 -0.0639  0.2517
 1408SOL     OW 5629   1.050   5.402   3.948  0.0690 -0.1627  0.4279
 1408SOL    HW1 5630   1.018   5.320   3.985  1.9167 -2.2166 -2.1000
 1408SOL    HW2 5631   0.977   5.433   3.894 -0.3366 -0.6143  0.6997
 1408SOL     MW 5632   1.036   5.395   3.946  0.2536 -0.4835  0.1391
 1409SOL     OW 5633   3.202   1.574   4.141  0.4778 -0.3071 -0.3419
 1409SOL    HW1 5634   3.136   1.626   4.098 -0.9101 -1.0978  0.7380
 1409SOL    HW2 5635   3.244   1.634   4.203 -1.0524 -0.3740  0.8378
 1409SOL     MW 5636   3.199   1.588   4.144  0.1043 -0.4169 -0.0526
 1410SOL     OW 5637   1.945   5.158   2.505  0.1804 -0.6601  0.4256
 1410SOL    HW1 5638   1.943   5.069   2.469 -1.0067 -1.1945  1.6798
 1410SOL    HW2 5639   2.017   5.156   2.568 -0.2506 -0.9653  0.9262
 1410SOL     MW 5640   1.954   5.146   2.509 -0.0267 -0.7676  0.6502
 1411SOL     OW 5641   3.576   2.334   1.527  0.3181 -0.2938 -0.1907
 1411SOL    HW1 5642   3.565   2.337   1.622  0.0153  1.4566 -0.2482
 1411SOL    HW2 5643   3.503   2.386   1.492 -0.4463 -2.1453 -1.4835
 1411SOL     MW 5644   3.566   2.341   1.535  0.1815 -0.3067 -0.3635
 1412SOL     OW 5645   3.835   3.530   4.237 -0.1302  0.3108  0.1414
 1412SOL    HW1 5646   3.771   3.508   4.305 -0.3637  0.7300  0.0582
 1412SOL    HW2 5647   3.804   3.613   4.200 -0.8053 -0.5913 -1.4434
 1412SOL     MW 5648   3.823   3.538   4.241 -0.2465  0.2489 -0.0721
 1413SOL     OW 5649   1.917   3.151   3.570 -0.0384 -0.0948  0.3263
 1413SOL    HW1 5650   1.901   3.174   3.478  0.6882 -2.5880 -0.5104
 1413SOL    HW2 5651   1.958   3.230   3.607  1.2940  0.4184 -1.9701
 1413SOL     MW 5652   1.920   3.164   3.563  0.2252 -0.3483 -0.0748
 1414SOL     OW 5653   0.168   5.117   4.174  0.1542 -0.3662 -0.0854
 1414SOL    HW1 5654   0.186   5.175   4.248  1.0803  0.5829 -1.0102
 1414SOL    HW2 5655   0.255   5.095   4.139 -0.2632 -0.8101 -0.8848
 1414SOL     MW 5656   0.182   5.121   4.179  0.2193 -0.3015 -0.3061
 1415SOL     OW 5657   5.127   2.087   2.881 -0.1534  0.3610  0.4644
 1415SOL    HW1 5658   5.218   2.092   2.912  1.0104 -2.5925 -1.9865
 1415SOL    HW2 5659   5.093   2.007   2.920 -0.8123  0.0822 -0.6500
 1415SOL     MW 5660   5.134   2.077   2.890 -0.0888 -0.0528  0.0080
 1416SOL     OW 5661   4.584   0.635   0.143  0.1175 -1.0649 -0.0790
 1416SOL    HW1 5662   4.609   0.709   0.088 -1.5023 -1.8474 -1.9989
 1416SOL    HW2 5663   4.540   0.674   0.218 -0.4100 -0.0493 -0.8971
 1416SOL     MW 5664   4.582   0.649   0.145 -0.1574 -1.0350 -0.4295
 1417SOL     OW 5665   4.776   3.918   5.471  0.6293 -0.0382 -0.0202
 1417SOL    HW1 5666   4.685   3.895   5.488  0.9205 -1.0149  0.2601
 1417SOL    HW2 5667   4.774   3.965   5.388  0.0121 -1.1128 -0.6270
 1417SOL     MW 5668   4.764   3.921   5.463  0.5875 -0.3008 -0.0620
 1418SOL     OW 5669   4.026   1.515   4.528 -0.1989  0.0589  0.3246
 1418SOL    HW1 5670   4.022   1.601   4.487  0.7516 -0.0502 -0.0185
 1418SOL    HW2 5671   3.990   1.455   4.463  0.5228  0.0036 -0.0392
 1418SOL     MW 5672   4.021   1.519   4.515  0.0151  0.0379  0.2341
 1419SOL     OW 5673   2.832   3.707   1.688 -0.3207  0.2505 -0.5613
 1419SOL    HW1 5674   2.851   3.724   1.596 -0.1610  0.2242 -0.5337
 1419SOL    HW2 5675   2.765   3.638   1.687 -0.2261  0.1600 -0.6562
 1419SOL     MW 5676   2.826   3.700   1.676 -0.2881  0.2356 -0.5699
 1420SOL     OW 5677   0.049   3.560   2.167 -0.5084 -0.5401  0.3589
 1420SOL    HW1 5678  -0.025   3.621   2.163  0.0982  0.2370  0.7774
 1420SOL    HW2 5679   0.029   3.504   2.242  0.7720  1.6432  2.4666
 1420SOL     MW 5680   0.037   3.560   2.176 -0.2668 -0.1612  0.6823
 1421SOL     OW 5681   2.682   4.978   1.261 -0.0379  0.3408  0.0404
 1421SOL    HW1 5682   2.774   5.005   1.257  0.1380 -0.4106 -2.4178
 1421SOL    HW2 5683   2.669   4.924   1.183 -2.5002  0.1353  0.5119
 1421SOL     MW 5684   2.692   4.974   1.251 -0.3306  0.2183 -0.2139
 1422SOL     OW 5685   2.634   1.762   1.915  0.1410 -0.0232  0.2217
 1422SOL    HW1 5686   2.619   1.851   1.948  0.1673  0.4578 -0.9841
 1422SOL    HW2 5687   2.668   1.713   1.990  2.9363  1.7411  0.2539
 1422SOL     MW 5688   2.636   1.767   1.929  0.5022  0.2643  0.0715
 1423SOL     OW 5689   4.450   4.932   0.663  0.3105 -0.1976 -0.0005
 1423SOL    HW1 5690   4.502   4.973   0.595 -1.4169  0.0401 -1.2550
 1423SOL    HW2 5691   4.398   5.004   0.700 -0.1318 -0.6433  0.2556
 1423SOL     MW 5692   4.450   4.947   0.659  0.0328 -0.2242 -0.1283
 1424SOL     OW 5693   5.193   4.256   1.933  0.3589 -0.2942  0.3931
 1424SOL    HW1 5694   5.272   4.309   1.929  0.4774 -0.3726  1.4959
 1424SOL    HW2 5695   5.135   4.294   1.867  1.9315 -1.2972 -1.6782
 1424SOL     MW 5696   5.195   4.268   1.924  0.5754 -0.4327  0.2692
 1425SOL     OW 5697   1.060   0.962   0.357 -0.2046  0.1853  0.2047
 1425SOL    HW1 5698   1.043   0.975   0.450 -0.6227 -0.9439  0.3001
 1425SOL    HW2 5699   0.993   0.900   0.329  0.5508 -0.2873 -0.6079
 1425SOL     MW 5700   1.049   0.955   0.365 -0.1614 -0.0198  0.1129
 1426SOL     OW 5701   4.450   0.773   3.727 -0.1430  0.0363 -0.4706
 1426SOL    HW1 5702   4.399   0.820   3.661 -0.5064 -1.4070 -1.2599
 1426SOL    HW2 5703   4.532   0.751   3.682 -0.0411 -0.2285 -0.1596
 1426SOL     MW 5704   4.454   0.776   3.712 -0.1765 -0.1824 -0.5318
 1427SOL     OW 5705   2.075   0.097   4.342 -0.3328 -0.2143 -0.0211
 1427SOL    HW1 5706   2.037   0.109   4.255  1.9397 -0.4415 -1.1322
 1427SOL    HW2 5707   2.147   0.036   4.328 -0.7370 -1.3542  2.3127
 1427SOL     MW 5708   2.079   0.091   4.329 -0.0936 -0.3893  0.1354
 1428SOL     OW 5709   2.270   3.805   3.056  0.1951  0.2787 -0.1136
 1428SOL    HW1 5710   2.328   3.871   3.018 -0.2102  1.3817  1.0847
 1428SOL    HW2 5711   2.195   3.803   2.996 -0.2065  1.6060  0.3142
 1428SOL     MW 5712   2.268   3.814   3.043  0.0918  0.5898  0.0946
 1429SOL     OW 5713   1.956   3.757   3.927 -0.2101  0.0064 -0.1083
 1429SOL    HW1 5714   2.016   3.724   3.861 -0.8657  0.5248 -0.9739
 1429SOL    HW2 5715   1.974   3.703   4.005  0.3409 -0.8153 -0.7932
 1429SOL     MW 5716   1.966   3.746   3.929 -0.2235 -0.0325 -0.3068
 1430SOL     OW 5717   2.707   5.060   4.021 -0.1055  0.3636  0.4414
 1430SOL    HW1 5718   2.662   5.045   4.104 -0.1205 -0.2291  0.3294
 1430SOL    HW2 5719   2.661   5.004   3.958 -1.5921  2.5225 -0.4941
 1430SOL     MW 5720   2.695   5.051   4.023 -0.2977  0.5641  0.3073
 1431SOL     OW 5721   2.792   4.344   5.164  0.1316  0.4581 -0.0949
 1431SOL    HW1 5722   2.711   4.389   5.184 -1.0529 -0.8947 -1.5554
 1431SOL    HW2 5723   2.829   4.391   5.090 -0.8900 -0.6323 -1.3477
 1431SOL     MW 5724   2.787   4.356   5.157 -0.1508  0.1453 -0.4422
 1432SOL     OW 5725   1.239   1.673   4.928 -0.1319 -0.3352 -0.5803
 1432SOL    HW1 5726   1.151   1.650   4.957 -1.1914  1.8080 -1.8672
 1432SOL    HW2 5727   1.269   1.736   4.994  0.9532 -1.8689  0.4677
 1432SOL     MW 5728   1.232   1.678   4.940 -0.1286 -0.2572 -0.6109
 1433SOL     OW 5729   1.406   4.059   2.263 -0.4564 -0.5795  0.0174
 1433SOL    HW1 5730   1.339   4.041   2.329 -3.2388  1.8615 -1.8595
 1433SOL    HW2 5731   1.401   4.154   2.250  2.8710 -0.4147 -0.8434
 1433SOL     MW 5732   1.396   4.069   2.270 -0.3866 -0.2459 -0.3330
 1434SOL     OW 5733   1.153   5.332   5.433 -0.2731  0.2079  0.2530
 1434SOL    HW1 5734   1.150   5.352   5.339  0.7561 -0.9921 -0.0658
 1434SOL    HW2 5735   1.086   5.265   5.445 -0.8868  0.8607  0.5227
 1434SOL     MW 5736   1.144   5.326   5.422 -0.2199  0.1378  0.2467
 1435SOL     OW 5737   3.487   1.092   5.408 -0.5718 -0.0426  0.1346
 1435SOL    HW1 5738   3.490   1.125   5.498 -3.3659 -0.0411  0.3034
 1435SOL    HW2 5739   3.489   0.997   5.417  0.1784 -0.0384  0.1008
 1435SOL     MW 5740   3.488   1.084   5.420 -0.8334 -0.0419  0.1519
 1436SOL     OW 5741   1.130   4.113   4.536  0.3570  0.0200 -0.1730
 1436SOL    HW1 5742   1.214   4.125   4.580  0.4291  0.6033 -0.4678
 1436SOL    HW2 5743   1.136   4.167   4.457 -0.7714  1.0977  0.4437
 1436SOL     MW 5744   1.142   4.121   4.531  0.2218  0.2326 -0.1318
 1437SOL     OW 5745   0.525   5.385   2.862  0.3372 -0.4978  0.6420
 1437SOL    HW1 5746   0.469   5.454   2.900 -1.0081 -1.5702  0.6724
 1437SOL    HW2 5747   0.538   5.413   2.771 -2.8852 -1.6799 -0.3401
 1437SOL     MW 5748   0.519   5.398   2.855 -0.2475 -0.7864  0.5202
 1438SOL     OW 5749   3.849   3.239   4.432  0.2683  0.7744 -0.7101
 1438SOL    HW1 5750   3.930   3.289   4.422  0.1698  0.9130 -0.8324
 1438SOL    HW2 5751   3.782   3.305   4.450  0.0616  0.7348 -1.2907
 1438SOL     MW 5752   3.851   3.254   4.433  0.2293  0.7871 -0.8000
 1439SOL     OW 5753   4.658   2.655   3.331  0.3029 -0.3683 -0.1178
 1439SOL    HW1 5754   4.622   2.708   3.260 -1.3631 -2.4148 -0.9011
 1439SOL    HW2 5755   4.714   2.591   3.287  1.8023  0.2637  0.7625
 1439SOL     MW 5756   4.661   2.654   3.317  0.2816 -0.5494 -0.1054
 1440SOL     OW 5757   5.402   4.185   1.113 -0.2787  0.3139 -0.5139
 1440SOL    HW1 5758   5.475   4.224   1.162  0.3284 -0.4305 -0.7960
 1440SOL    HW2 5759   5.420   4.207   1.022  0.2453 -0.8525 -0.7139
 1440SOL     MW 5760   5.414   4.193   1.107 -0.1339  0.0693 -0.5757
 1441SOL     OW 5761   2.438   3.168   0.554 -0.0392 -0.4388 -0.0062
 1441SOL    HW1 5762   2.419   3.075   0.538 -0.9164 -0.3766  0.5843
 1441SOL    HW2 5763   2.399   3.186   0.640  0.5211  0.3692  0.0964
 1441SOL     MW 5764   2.431   3.158   0.563 -0.0797 -0.3274  0.0825
 1442SOL     OW 5765   4.605   2.847   3.731 -0.4294  0.5219  0.3542
 1442SOL    HW1 5766   4.666   2.874   3.800  1.0753  1.4452 -1.2767
 1442SOL    HW2 5767   4.656   2.787   3.676 -1.2625  0.6468 -0.5721
 1442SOL     MW 5768   4.619   2.843   3.733 -0.3434  0.6560  0.0268
 1443SOL     OW 5769   2.559   0.141   4.942  0.2058  0.0121  0.2000
 1443SOL    HW1 5770   2.520   0.105   4.863  2.9539  0.5888 -1.5397
 1443SOL    HW2 5771   2.500   0.212   4.968 -0.3270  0.3867 -1.8771
 1443SOL     MW 5772   2.547   0.145   4.935  0.4894  0.1339 -0.2886
 1444SOL     OW 5773   2.046   1.460   2.014 -0.7313 -0.0111  0.2520
 1444SOL    HW1 5774   2.064   1.540   1.965  0.3987  0.0543  0.7429
 1444SOL    HW2 5775   2.020   1.490   2.101 -0.7293 -0.1745  0.3102
 1444SOL     MW 5776   2.045   1.474   2.019 -0.5864 -0.0236  0.3223
 1445SOL     OW 5777   0.360   2.829   3.766 -0.4892 -0.0077 -0.0350
 1445SOL    HW1 5778   0.278   2.856   3.724 -0.6950  2.2232  1.6392
 1445SOL    HW2 5779   0.426   2.888   3.731 -0.4250  1.0178  1.7160
 1445SOL     MW 5780   0.358   2.840   3.756 -0.5073  0.4092  0.4035
 1446SOL     OW 5781   4.939   3.925   3.244 -0.6285  0.4244 -0.3492
 1446SOL    HW1 5782   4.899   3.853   3.294 -1.0005 -0.0102 -1.2453
 1446SOL    HW2 5783   4.962   3.990   3.309 -2.2827  0.4346  0.2642
 1446SOL     MW 5784   4.937   3.924   3.258 -0.8879  0.3701 -0.3854
 1447SOL     OW 5785   1.301   0.158   2.589 -0.2192  0.1705 -0.3078
 1447SOL    HW1 5786   1.350   0.129   2.512 -2.0531 -1.7729 -0.8514
 1447SOL    HW2 5787   1.360   0.144   2.663  0.9196  0.3482 -1.1525
 1447SOL     MW 5788   1.315   0.153   2.589 -0.3082 -0.0555 -0.4855
 1448SOL     OW 5789   3.291   4.155   0.486  0.0666  0.7765 -0.0407
 1448SOL    HW1 5790   3.271   4.247   0.505 -0.7502  0.7277 -0.6186
 1448SOL    HW2 5791   3.211   4.108   0.508 -0.3301  0.5021 -1.9608
 1448SOL     MW 5792   3.278   4.161   0.492 -0.0887  0.7351 -0.3604
 1449SOL     OW 5793   1.089   2.982   3.783  0.5423 -0.2423  0.0018
 1449SOL    HW1 5794   1.069   2.954   3.872  0.6472  1.4688  0.5924
 1449SOL    HW2 5795   1.053   3.070   3.776 -2.4755 -1.5003 -2.7658
 1449SOL     MW 5796   1.082   2.990   3.794  0.1694 -0.1843 -0.2769
 1450SOL     OW 5797   2.887   0.053   1.362  0.3953 -0.3485 -0.3567
 1450SOL    HW1 5798   2.955   0.001   1.406 -0.1338 -1.7406 -1.1245
 1450SOL    HW2 5799   2.870   0.005   1.280 -0.0586  1.0985 -1.1371
 1450SOL     MW 5800   2.894   0.040   1.357  0.2695 -0.3415 -0.5549
 1451SOL     OW 5801   2.459   5.139   4.503  0.5352 -0.0096 -0.2894
 1451SOL    HW1 5802   2.509   5.219   4.517 -1.1352  0.7899  1.7104
 1451SOL    HW2 5803   2.369   5.170   4.486  0.2778 -1.4265 -1.6948
 1451SOL     MW 5804   2.454   5.153   4.502  0.2884 -0.0886 -0.2133
 1452SOL     OW 5805   4.850   4.109   2.261 -0.4481 -0.0935 -0.1729
 1452SOL    HW1 5806   4.765   4.092   2.221 -0.2544 -0.3945 -0.4620
 1452SOL    HW2 5807   4.835   4.184   2.318 -0.3564  1.3901 -2.0198
 1452SOL     MW 5808   4.837   4.116   2.264 -0.4116  0.0579 -0.4463
 1453SOL     OW 5809   3.989   2.032   3.903 -0.2034  0.1962 -0.3868
 1453SOL    HW1 5810   3.963   2.057   3.814  1.1666  0.1261 -0.8287
 1453SOL    HW2 5811   3.989   1.936   3.902  0.6383  0.1979 -0.5659
 1453SOL     MW 5812   3.985   2.023   3.891  0.0798  0.1875 -0.4663
 1454SOL     OW 5813   0.479   3.576   2.424  0.1618 -0.0393  0.5171
 1454SOL    HW1 5814   0.567   3.546   2.443  0.1454 -2.5627 -2.5208
 1454SOL    HW2 5815   0.425   3.539   2.494  1.1099 -1.1787  0.6749
 1454SOL     MW 5816   0.483   3.568   2.435  0.2811 -0.5082  0.1484
 1455SOL     OW 5817   4.201   3.476   0.355  0.1167  0.2429 -0.2357
 1455SOL    HW1 5818   4.238   3.545   0.411 -0.2865  1.4533 -1.4052
 1455SOL    HW2 5819   4.165   3.523   0.280  0.8738 -1.3335 -1.6642
 1455SOL     MW 5820   4.201   3.491   0.352  0.1620  0.1960 -0.5683
 1456SOL     OW 5821   2.115   4.953   0.052 -0.0855  0.0604  0.2223
 1456SOL    HW1 5822   2.076   4.981  -0.030 -2.4730 -2.1889  0.4451
 1456SOL    HW2 5823   2.077   5.011   0.118 -2.1012 -1.1898  0.2498
 1456SOL     MW 5824   2.105   4.964   0.050 -0.6492 -0.3876  0.2543
 1457SOL     OW 5825   2.215   4.648   4.742  0.5586 -0.6320  0.4588
 1457SOL    HW1 5826   2.306   4.655   4.712  0.4973 -1.0232  0.1748
 1457SOL    HW2 5827   2.222   4.622   4.834  0.7279 -1.9218  0.0940
 1457SOL     MW 5828   2.228   4.646   4.750  0.5724 -0.8472  0.3757
 1458SOL     OW 5829   0.721   2.598   3.748 -0.4153  0.6799  0.0235
 1458SOL    HW1 5830   0.663   2.657   3.699  0.0679 -0.1625 -1.6272
 1458SOL    HW2 5831   0.801   2.595   3.697  0.3558  0.2599  1.2229
 1458SOL     MW 5832   0.724   2.605   3.735 -0.2547  0.5183 -0.0343
 1459SOL     OW 5833   1.334   0.668   2.571  0.3546 -0.2210 -0.0657
 1459SOL    HW1 5834   1.386   0.637   2.497  1.5893  0.6069  0.4196
 1459SOL    HW2 5835   1.367   0.617   2.646 -0.1280 -0.2837  0.1096
 1459SOL     MW 5836   1.345   0.657   2.571  0.4509 -0.1230  0.0189
 1460SOL     OW 5837   5.133   3.379   1.235  0.1514  0.1911  0.5426
 1460SOL    HW1 5838   5.161   3.392   1.326  0.2015  0.6174  0.4681
 1460SOL    HW2 5839   5.150   3.286   1.218  3.1710  0.7508 -0.0561
 1460SOL     MW 5840   5.139   3.368   1.245  0.5443  0.3173  0.4565
 1461SOL     OW 5841   2.131   3.830   0.084  0.2137 -0.4232 -0.1968
 1461SOL    HW1 5842   2.107   3.876   0.165 -3.0783 -1.6141 -0.3582
 1461SOL    HW2 5843   2.129   3.737   0.107  1.0980 -0.7327 -1.2479
 1461SOL     MW 5844   2.128   3.824   0.097 -0.0945 -0.6153 -0.3520
 1462SOL     OW 5845   4.161   1.071   3.557 -0.4968 -0.1284 -0.3387
 1462SOL    HW1 5846   4.071   1.084   3.529 -0.0907  1.0397 -1.1658
 1462SOL    HW2 5847   4.210   1.140   3.514  0.6760 -0.2396  0.7551
 1462SOL     MW 5848   4.156   1.081   3.548 -0.2947  0.0069 -0.3046
 1463SOL     OW 5849   1.087   0.181   1.623  0.0931 -0.4170  0.0152
 1463SOL    HW1 5850   1.100   0.101   1.572 -1.6774 -0.8624  0.1712
 1463SOL    HW2 5851   1.076   0.151   1.713 -1.9382 -0.1969 -0.1056
 1463SOL     MW 5852   1.087   0.167   1.628 -0.3936 -0.4458  0.0197
 1464SOL     OW 5853   1.570   2.848   0.790  0.4251  0.5900  0.0234
 1464SOL    HW1 5854   1.553   2.829   0.882  2.0211 -1.6755 -0.0497
 1464SOL    HW2 5855   1.505   2.797   0.742 -0.8699  2.3207 -0.1806
 1464SOL     MW 5856   1.560   2.839   0.796  0.4636  0.5215 -0.0121
 1465SOL     OW 5857   3.675   5.063   1.755  0.3698  0.2345 -0.1000
 1465SOL    HW1 5858   3.600   5.023   1.800 -0.9860  1.0635 -1.5155
 1465SOL    HW2 5859   3.687   5.148   1.798 -0.1313  0.5001 -0.4705
 1465SOL     MW 5860   3.667   5.069   1.766  0.1321  0.3746 -0.3286
 1466SOL     OW 5861   5.272   1.228   0.238  0.1023  0.5858 -0.0705
 1466SOL    HW1 5862   5.325   1.190   0.309  0.3341 -0.6061 -0.8412
 1466SOL    HW2 5863   5.306   1.187   0.159 -3.0748 -1.6334 -0.4878
 1466SOL     MW 5864   5.283   1.218   0.237 -0.2747  0.1491 -0.2226
 1467SOL     OW 5865   4.941   2.634   3.954 -0.1542 -0.4524 -0.5537
 1467SOL    HW1 5866   4.937   2.571   4.027 -0.5915 -0.2715 -0.4156
 1467SOL    HW2 5867   4.911   2.716   3.992  1.8094  0.2157 -0.3649
 1467SOL     MW 5868   4.937   2.636   3.968  0.0412 -0.3437 -0.5119
 1468SOL     OW 5869   3.962   5.071   3.258  0.3412  0.0600 -0.4183
 1468SOL    HW1 5870   3.890   5.097   3.316 -0.6610 -1.9120 -0.6792
 1468SOL    HW2 5871   3.990   4.986   3.292  1.1339 -0.1734 -1.5907
 1468SOL     MW 5872   3.956   5.063   3.270  0.3144 -0.2224 -0.6018
 1469SOL     OW 5873   0.454   4.690   0.905 -0.0805 -0.5741  0.2400
 1469SOL    HW1 5874   0.409   4.745   0.969 -0.4521 -1.2395  0.5668
 1469SOL    HW2 5875   0.387   4.667   0.842  0.4236  0.5698 -0.7441
 1469SOL     MW 5876   0.440   4.694   0.905 -0.0636 -0.5129  0.1559
 1470SOL     OW 5877   2.681   0.998   4.899  0.8682  0.3664  0.2110
 1470SOL    HW1 5878   2.692   1.091   4.881  0.0670  0.2238 -1.1522
 1470SOL    HW2 5879   2.766   0.970   4.933  1.6382  1.2747 -0.8994
 1470SOL     MW 5880   2.694   1.006   4.901  0.8642  0.4644 -0.1056
 1471SOL     OW 5881   0.511   1.875   0.201  0.3511  0.1734 -0.0942
 1471SOL    HW1 5882   0.504   1.964   0.236 -0.4040 -0.4235  1.3587
 1471SOL    HW2 5883   0.511   1.819   0.278  1.5265 -1.0684 -0.9568
 1471SOL     MW 5884   0.510   1.879   0.215  0.4049 -0.0620 -0.0186
 1472SOL     OW 5885   1.511   1.623   2.408  0.3531 -0.0760 -0.0993
 1472SOL    HW1 5886   1.473   1.649   2.492  2.1509 -0.0361  0.7659
 1472SOL    HW2 5887   1.529   1.705   2.363 -0.6893 -0.1000 -0.5709
 1472SOL     MW 5888   1.509   1.637   2.413  0.4498 -0.0740 -0.0489
 1473SOL     OW 5889   4.458   3.198   1.506  0.0266 -0.3176 -0.0178
 1473SOL    HW1 5890   4.455   3.235   1.418  1.0696 -0.3670 -0.0874
 1473SOL    HW2 5891   4.413   3.114   1.498 -0.5651  0.0194 -0.3183
 1473SOL     MW 5892   4.452   3.192   1.493  0.0843 -0.2808 -0.0652
 1474SOL     OW 5893   1.308   4.731   3.490  0.2844 -0.1902 -0.4670
 1474SOL    HW1 5894   1.336   4.725   3.398  0.7325 -0.8111 -0.2938
 1474SOL    HW2 5895   1.288   4.641   3.515 -0.0757  0.0078 -0.0201
 1474SOL     MW 5896   1.309   4.719   3.481  0.2957 -0.2443 -0.3876
 1475SOL     OW 5897   4.585   0.377   3.522 -0.1286 -0.0791 -0.0937
 1475SOL    HW1 5898   4.572   0.419   3.607 -1.0594  3.3080 -1.7435
 1475SOL    HW2 5899   4.501   0.336   3.502 -0.0282 -0.5426  0.3980
 1475SOL     MW 5900   4.573   0.377   3.531 -0.2349  0.2951 -0.2420
 1476SOL     OW 5901   1.611   4.839   4.934  0.3338  0.0563  0.1546
 1476SOL    HW1 5902   1.662   4.784   4.876 -0.6705  0.6420 -1.3397
 1476SOL    HW2 5903   1.542   4.782   4.968  1.3292 -0.4703  1.3867
 1476SOL     MW 5904   1.609   4.825   4.931  0.3326  0.0639  0.1210
 1477SOL     OW 5905   2.616   3.139   3.857 -0.3152  0.1971 -0.3807
 1477SOL    HW1 5906   2.650   3.052   3.878  0.5020  0.1038 -1.9739
 1477SOL    HW2 5907   2.633   3.149   3.764 -1.5783  1.5588 -0.4891
 1477SOL     MW 5908   2.623   3.129   3.848 -0.3723  0.3595 -0.5985
 1478SOL     OW 5909   3.313   3.857   1.437  0.5043 -0.0840 -0.1839
 1478SOL    HW1 5910   3.317   3.948   1.405  2.0357 -0.2400 -0.4979
 1478SOL    HW2 5911   3.284   3.865   1.528  0.6525  0.7265 -0.1983
 1478SOL     MW 5912   3.310   3.870   1.445  0.7193 -0.0003 -0.2259
 1479SOL     OW 5913   0.024   3.488   1.562 -0.3739  0.0168 -0.6383
 1479SOL    HW1 5914  -0.069   3.470   1.547 -0.7896  1.5426 -0.1126
 1479SOL    HW2 5915   0.067   3.463   1.481 -1.2651 -0.5856 -0.9420
 1479SOL     MW 5916   0.018   3.483   1.550 -0.5412  0.1350 -0.6098
 1480SOL     OW 5917   2.395   2.978   2.564  0.5921 -0.3010  0.4811
 1480SOL    HW1 5918   2.345   3.048   2.606 -0.7788 -0.6492 -0.5008
 1480SOL    HW2 5919   2.356   2.897   2.597  1.0197 -0.5869  0.2944
 1480SOL     MW 5920   2.383   2.977   2.574  0.4713 -0.3822  0.3315
 1481SOL     OW 5921   4.758   4.629   1.373 -0.2110 -0.1415 -0.0618
 1481SOL    HW1 5922   4.781   4.715   1.338  1.7178 -0.3294  0.6509
 1481SOL    HW2 5923   4.824   4.569   1.338  1.0077 -0.5652  2.6629
 1481SOL     MW 5924   4.769   4.633   1.364  0.1919 -0.2198  0.3783
 1482SOL     OW 5925   3.748   3.669   0.913  0.7032  0.5792 -0.0127
 1482SOL    HW1 5926   3.786   3.581   0.925  0.0073  0.2485 -0.1973
 1482SOL    HW2 5927   3.809   3.727   0.958  0.8930 -0.0594  0.5803
 1482SOL     MW 5928   3.761   3.665   0.920  0.6384  0.4551  0.0396
 1483SOL     OW 5929   4.613   4.847   2.385 -0.4567 -0.6308  0.6373
 1483SOL    HW1 5930   4.549   4.823   2.318  0.2313  0.2460 -0.3628
 1483SOL    HW2 5931   4.580   4.929   2.421 -0.0710 -0.3354  0.3299
 1483SOL     MW 5932   4.600   4.854   2.381 -0.3193 -0.4808  0.4700
 1484SOL     OW 5933   2.796   3.865   4.693  0.0572  0.5376  0.2557
 1484SOL    HW1 5934   2.741   3.924   4.745  0.6535  1.0461  0.3171
 1484SOL    HW2 5935   2.844   3.922   4.634 -0.1152  0.0175 -0.4003
 1484SOL     MW 5936   2.795   3.880   4.692  0.1115  0.5361  0.1796
 1485SOL     OW 5937   4.733   0.556   0.783 -0.3643 -0.5581 -0.1399
 1485SOL    HW1 5938   4.652   0.584   0.741  0.3029  0.7629 -0.6152
 1485SOL    HW2 5939   4.795   0.627   0.764  1.4121 -2.3339 -1.3367
 1485SOL     MW 5940   4.731   0.569   0.775 -0.0515 -0.6163 -0.3540
 1486SOL     OW 5941   2.549   1.420   4.107 -0.1371  0.0577  0.3502
 1486SOL    HW1 5942   2.522   1.506   4.138 -0.5775  0.1791 -0.3471
 1486SOL    HW2 5943   2.554   1.366   4.186  1.3397  1.0200  0.9511
 1486SOL     MW 5944   2.546   1.424   4.121 -0.0045  0.1964  0.3379
 1487SOL     OW 5945   2.100   3.394   2.109  0.1673 -0.5462 -0.4793
 1487SOL    HW1 5946   2.037   3.352   2.167 -0.3826  0.0510 -0.6310
 1487SOL    HW2 5947   2.170   3.330   2.098 -0.1696 -1.0168  0.1011
 1487SOL     MW 5948   2.101   3.381   2.115  0.0538 -0.5300 -0.4244
 1488SOL     OW 5949   2.436   3.570   1.144 -0.5613 -0.1768  0.1405
 1488SOL    HW1 5950   2.442   3.475   1.153  1.0542  0.0313  1.9447
 1488SOL    HW2 5951   2.407   3.600   1.229  2.4530  1.1363  0.8340
 1488SOL     MW 5952   2.433   3.561   1.156  0.0313  0.0179  0.4602
 1489SOL     OW 5953   0.952   4.103   5.192 -0.3805 -0.1198  0.1097
 1489SOL    HW1 5954   0.909   4.179   5.231  1.1627  1.3561 -0.9065
 1489SOL    HW2 5955   0.979   4.050   5.267  0.4142  1.4417  0.9835
 1489SOL     MW 5956   0.950   4.106   5.206 -0.0812  0.2691  0.0915
 1490SOL     OW 5957   2.172   3.813   4.497 -0.1407  0.2204  0.2119
 1490SOL    HW1 5958   2.087   3.790   4.535  0.4152  0.9456  1.9918
 1490SOL    HW2 5959   2.226   3.736   4.513  0.6747  1.2131  2.8998
 1490SOL     MW 5960   2.168   3.800   4.504  0.0349  0.4403  0.7838
 1491SOL     OW 5961   1.398   2.512   2.045  0.0354 -0.5134  0.0214
 1491SOL    HW1 5962   1.415   2.460   2.124  0.8536 -0.1418  0.0997
 1491SOL    HW2 5963   1.453   2.471   1.977 -0.7319 -0.8872 -0.3846
 1491SOL     MW 5964   1.407   2.500   2.046  0.0419 -0.5137 -0.0206
 1492SOL     OW 5965   2.824   2.705   0.055  0.5117  0.4844  0.7246
 1492SOL    HW1 5966   2.898   2.711  -0.005  0.3652 -0.0175  0.4903
 1492SOL    HW2 5967   2.749   2.685  -0.001  0.6771 -1.8214  1.2340
 1492SOL     MW 5968   2.824   2.704   0.041  0.5141  0.1249  0.7599
 1493SOL     OW 5969   0.426   5.441   3.542 -0.0306  0.2965  0.0622
 1493SOL    HW1 5970   0.436   5.361   3.593 -1.0873  0.5077  0.6371
 1493SOL    HW2 5971   0.351   5.425   3.485  0.7054  0.3238 -0.9375
 1493SOL     MW 5972   0.417   5.429   3.541 -0.0717  0.3271  0.0079
 1494SOL     OW 5973   0.798   3.922   4.169  0.1973  0.2550 -0.0323
 1494SOL    HW1 5974   0.722   3.877   4.206 -0.0534 -0.3000 -1.1806
 1494SOL    HW2 5975   0.803   4.005   4.217 -2.1111  1.0506 -1.0400
 1494SOL     MW 5976   0.789   3.927   4.180 -0.1303  0.2858 -0.3083
 1495SOL     OW 5977   5.119   0.429   0.350 -0.2849 -0.1495 -0.1848
 1495SOL    HW1 5978   5.138   0.340   0.320  0.9859 -0.6867  1.9897
 1495SOL    HW2 5979   5.166   0.486   0.289  1.1164 -1.1124 -0.0406
 1495SOL     MW 5980   5.128   0.425   0.338  0.0571 -0.3416  0.1120
 1496SOL     OW 5981   3.462   0.482   0.341 -0.3593 -0.2063  0.1651
 1496SOL    HW1 5982   3.552   0.458   0.361  0.0517 -1.2437 -2.4137
 1496SOL    HW2 5983   3.424   0.508   0.425  2.2298 -0.0032  1.3683
 1496SOL     MW 5984   3.468   0.482   0.354  0.0247 -0.3131 -0.0110
 1497SOL     OW 5985   2.812   5.225   3.231  0.2556 -0.2135  0.2615
 1497SOL    HW1 5986   2.794   5.165   3.158  1.8567 -0.8923  0.3880
 1497SOL    HW2 5987   2.876   5.287   3.197 -0.6607  0.8778  0.4386
 1497SOL     MW 5988   2.818   5.225   3.217  0.3432 -0.1607  0.3004
 1498SOL     OW 5989   4.029   4.222   1.334 -0.0017 -0.2405  0.3348
 1498SOL    HW1 5990   4.030   4.256   1.424  0.9045  1.9299 -0.4245
 1498SOL    HW2 5991   3.984   4.290   1.284 -0.0691 -1.1999 -0.9551
 1498SOL     MW 5992   4.023   4.235   1.339  0.1057 -0.0855  0.0725
 1499SOL     OW 5993   2.535   5.390   3.766  0.3514  0.4168  0.0579
 1499SOL    HW1 5994   2.581   5.388   3.850  0.1853 -2.2654  0.1597
 1499SOL    HW2 5995   2.580   5.325   3.712 -0.9405  0.4630 -1.1403
 1499SOL     MW 5996   2.546   5.381   3.770  0.1647  0.0794 -0.0824
 1500SOL     OW 5997   1.807   2.151   1.281  0.4615 -0.0924  1.0004
 1500SOL    HW1 5998   1.829   2.181   1.193  0.0909  0.3792  1.0633
 1500SOL    HW2 5999   1.767   2.065   1.268 -3.1336  1.5146  0.3026
 1500SOL     MW 6000   1.805   2.144   1.268 -0.0462  0.1737  0.9191
 1501SOL     OW 6001   5.198   1.367   4.302  0.5649 -0.0992 -0.0628
 1501SOL    HW1 6002   5.261   1.325   4.243 -0.9180 -1.2476 -0.9144
 1501SOL    HW2 6003   5.180   1.301   4.368  1.5846  0.8890  1.2639
 1501SOL     MW 6004   5.204   1.353   4.303  0.5056 -0.1197 -0.0020
 1502SOL     OW 6005   2.283   1.816   0.966  0.2414 -0.5057  0.3540
 1502SOL    HW1 6006   2.330   1.814   0.882 -0.6054  0.3722 -0.1575
 1502SOL    HW2 6007   2.270   1.724   0.988  0.2501 -0.7516 -0.6110
 1502SOL     MW 6008   2.288   1.804   0.958  0.1341 -0.4248  0.1650
 1503SOL     OW 6009   0.164   3.774   2.322 -0.1250 -0.4134 -0.0422
 1503SOL    HW1 6010   0.148   3.711   2.251  0.3872 -1.4750  0.7545
 1503SOL    HW2 6011   0.169   3.859   2.278  0.9531 -1.1345 -1.3850
 1503SOL     MW 6012   0.163   3.777   2.307  0.0786 -0.6416 -0.1121
 1504SOL     OW 6013   0.469   4.938   2.352  0.0422 -0.0442  0.8819
 1504SOL    HW1 6014   0.400   4.879   2.379  0.8358 -1.2127  0.4481
 1504SOL    HW2 6015   0.550   4.896   2.381  0.8862 -0.9571 -2.3682
 1504SOL     MW 6016   0.471   4.925   2.359  0.2518 -0.3106  0.4103
 1505SOL     OW 6017   5.259   5.431   2.318 -0.1051  0.3864 -0.0844
 1505SOL    HW1 6018   5.282   5.467   2.404  3.0880  0.5628 -0.9012
 1505SOL    HW2 6019   5.324   5.363   2.301 -2.1092 -1.3331 -1.3976
 1505SOL     MW 6020   5.270   5.427   2.327  0.0471  0.1889 -0.3571
 1506SOL     OW 6021   4.365   0.287   2.239  0.3082  0.5389  0.5800
 1506SOL    HW1 6022   4.427   0.226   2.280  0.6857  0.7685  0.3539
 1506SOL    HW2 6023   4.348   0.250   2.153 -1.5818 -0.7141  1.4110
 1506SOL     MW 6024   4.371   0.274   2.233  0.1146  0.4079  0.6575
 1507SOL     OW 6025   4.213   3.123   0.773  0.3880 -0.2758  0.0431
 1507SOL    HW1 6026   4.278   3.056   0.752  1.2302  0.3864  0.4291
 1507SOL    HW2 6027   4.182   3.100   0.861  1.6633  0.5404  0.7502
 1507SOL     MW 6028   4.218   3.112   0.782  0.6591 -0.0866  0.1830
 1508SOL     OW 6029   0.682   3.895   0.932  0.0935 -0.2488  0.3505
 1508SOL    HW1 6030   0.776   3.899   0.945  0.2118 -1.4824  0.0140
 1508SOL    HW2 6031   0.664   3.803   0.910 -1.0146  0.2004 -0.7951
 1508SOL     MW 6032   0.691   3.883   0.931 -0.0332 -0.3492  0.1608
 1509SOL     OW 6033   1.598   1.300   2.442  0.8283 -0.2219 -0.3523
 1509SOL    HW1 6034   1.569   1.319   2.531 -2.0103 -1.1905 -0.9710
 1509SOL    HW2 6035   1.692   1.282   2.451  0.6559 -0.2028  2.4009
 1509SOL     MW 6036   1.607   1.300   2.454  0.4429 -0.3434 -0.0791
 1510SOL     OW 6037   4.237   4.900   3.278  0.3806  0.5699  0.4383
 1510SOL    HW1 6038   4.256   4.919   3.186 -1.2277  0.3927  0.0457
 1510SOL    HW2 6039   4.312   4.849   3.308  0.7506  0.3136 -0.8744
 1510SOL     MW 6040   4.249   4.896   3.270  0.2221  0.5144  0.2200
 1511SOL     OW 6041   3.161   0.036   0.366 -0.1743  0.1594 -0.2875
 1511SOL    HW1 6042   3.104  -0.030   0.326 -1.2038  1.3667 -0.9174
 1511SOL    HW2 6043   3.152   0.112   0.308  0.6369  0.9908  0.6515
 1511SOL     MW 6044   3.153   0.038   0.353 -0.2023  0.4204 -0.2479
 1512SOL     OW 6045   1.068   0.775   1.307 -0.4958 -0.2964 -0.0025
 1512SOL    HW1 6046   1.048   0.800   1.217  0.2075 -1.1451 -0.4104
 1512SOL    HW2 6047   1.082   0.859   1.352 -0.5219  0.1257 -0.7562
 1512SOL     MW 6048   1.068   0.789   1.301 -0.4091 -0.3510 -0.1512
 1513SOL     OW 6049   1.261   1.507   2.402  0.5895  0.5819 -0.0809
 1513SOL    HW1 6050   1.249   1.503   2.497  0.6841 -0.8473 -0.0980
 1513SOL    HW2 6051   1.355   1.520   2.390  0.9836 -1.7123  0.0577
 1513SOL     MW 6052   1.271   1.508   2.413  0.6521  0.1053 -0.0653
 1514SOL     OW 6053   3.236   1.433   5.145 -0.1415  0.5406  0.2090
 1514SOL    HW1 6054   3.309   1.378   5.115 -0.7326 -0.4670  0.5711
 1514SOL    HW2 6055   3.171   1.371   5.177 -0.7514  1.4698  0.8180
 1514SOL     MW 6056   3.237   1.418   5.145 -0.2952  0.5306  0.3333
 1515SOL     OW 6057   1.594   1.751   4.226 -0.1037  0.5531 -0.1198
 1515SOL    HW1 6058   1.662   1.693   4.260  1.3178  2.2232  0.0135
 1515SOL    HW2 6059   1.581   1.816   4.295 -1.3403  0.6958 -0.4566
 1515SOL     MW 6060   1.601   1.752   4.239 -0.0801  0.7852 -0.1459
 1516SOL     OW 6061   4.089   2.283   1.572 -0.2599  0.9049 -0.1294
 1516SOL    HW1 6062   4.130   2.305   1.655 -0.1258 -0.2622  0.1306
 1516SOL    HW2 6063   4.016   2.226   1.596 -0.3405  0.7147 -0.8073
 1516SOL     MW 6064   4.085   2.279   1.586 -0.2531  0.7312 -0.1829
 1517SOL     OW 6065   2.618   4.999   4.274  0.0353 -0.2931 -0.0193
 1517SOL    HW1 6066   2.705   5.006   4.312 -0.6687  0.3165  1.5949
 1517SOL    HW2 6067   2.562   5.047   4.335 -1.4364 -0.7125 -0.9940
 1517SOL     MW 6068   2.622   5.006   4.286 -0.2432 -0.2688  0.0626
 1518SOL     OW 6069   0.351   2.181   2.993  0.1800 -0.2523 -0.1253
 1518SOL    HW1 6070   0.426   2.236   3.017 -0.9927  0.9854  0.9358
 1518SOL    HW2 6071   0.290   2.242   2.950 -0.7452 -0.9344  0.1831
 1518SOL     MW 6072   0.353   2.196   2.991 -0.0886 -0.1811  0.0500
 1519SOL     OW 6073   2.501   2.462   2.906  0.0393  0.1011  0.2279
 1519SOL    HW1 6074   2.546   2.495   2.828 -1.1852 -0.1985 -0.6347
 1519SOL    HW2 6075   2.510   2.533   2.970  2.5376 -0.3219  0.4609
 1519SOL     MW 6076   2.508   2.476   2.904  0.2024  0.0086  0.1473
 1520SOL     OW 6077   1.597   4.902   3.802 -0.2167  0.8349 -0.1706
 1520SOL    HW1 6078   1.501   4.904   3.804 -0.2413  0.0138 -0.2953
 1520SOL    HW2 6079   1.623   4.909   3.894 -0.4146  0.4635 -0.0844
 1520SOL     MW 6080   1.588   4.903   3.814 -0.2452  0.6822 -0.1755
 1521SOL     OW 6081   4.349   5.158   0.447 -0.7079  0.0697  0.7012
 1521SOL    HW1 6082   4.365   5.249   0.421  0.3010  0.0655  1.2736
 1521SOL    HW2 6083   4.332   5.163   0.541 -0.4770 -0.3568  0.7663
 1521SOL     MW 6084   4.349   5.170   0.456 -0.5492  0.0145  0.7828
 1522SOL     OW 6085   0.187   1.756   1.853 -0.0514  0.4922 -0.0948
 1522SOL    HW1 6086   0.158   1.834   1.901  1.6171  1.4308 -0.5541
 1522SOL    HW2 6087   0.262   1.723   1.903  1.2358  1.0463 -1.5757
 1522SOL     MW 6088   0.193   1.762   1.866  0.3270  0.6833 -0.3432
 1523SOL     OW 6089   1.032   2.990   0.293  0.0174 -0.2120 -0.3738
 1523SOL    HW1 6090   1.028   3.042   0.373  1.9715  0.8582 -0.9026
 1523SOL    HW2 6091   1.002   2.903   0.319 -0.9794  0.5366  1.1045
 1523SOL     MW 6092   1.028   2.986   0.306  0.1400  0.0209 -0.2522
 1524SOL     OW 6093   3.867   3.367   2.181 -0.2265  0.7069 -0.0266
 1524SOL    HW1 6094   3.836   3.279   2.158  0.7088  0.4980 -0.5403
 1524SOL    HW2 6095   3.843   3.421   2.106 -1.3288  1.0474  0.5337
 1524SOL     MW 6096   3.860   3.363   2.169 -0.2478  0.7237 -0.0206
 1525SOL     OW 6097   3.134   2.316   4.414 -0.4611  0.0260 -0.3508
 1525SOL    HW1 6098   3.076   2.304   4.338 -0.9606  0.8980 -0.1154
 1525SOL    HW2 6099   3.199   2.380   4.385  0.1411 -0.6257 -0.4677
 1525SOL     MW 6100   3.135   2.322   4.400 -0.4479  0.0542 -0.3356
 1526SOL     OW 6101   1.069   1.880   4.380 -0.1997 -0.2405  0.3636
 1526SOL    HW1 6102   1.117   1.837   4.309  1.2283  1.5380  0.1719
 1526SOL    HW2 6103   1.099   1.834   4.459  1.4369  0.4366  0.1842
 1526SOL     MW 6104   1.079   1.869   4.381  0.1926  0.0739  0.3161
 1527SOL     OW 6105   1.402   0.079   0.054  0.0198  0.6112 -0.2038
 1527SOL    HW1 6106   1.395   0.020  -0.021 -0.5896  0.0421  0.2929
 1527SOL    HW2 6107   1.444   0.157   0.018  1.7783 -0.4738 -0.6845
 1527SOL     MW 6108   1.407   0.081   0.040  0.1669  0.3994 -0.2018
 1528SOL     OW 6109   3.798   0.305   2.178 -0.3199  0.0498 -0.4176
 1528SOL    HW1 6110   3.844   0.387   2.156  0.7001 -0.1103  0.9675
 1528SOL    HW2 6111   3.862   0.256   2.229 -1.6010 -0.7803  0.4264
 1528SOL     MW 6112   3.812   0.310   2.182 -0.3534 -0.0769 -0.1323
 1529SOL     OW 6113   2.788   1.446   1.896  0.2677  0.5536  0.3364
 1529SOL    HW1 6114   2.693   1.453   1.881  0.2651  0.3777  0.2607
 1529SOL    HW2 6115   2.827   1.495   1.824  0.2071  2.3146  1.4560
 1529SOL     MW 6116   2.781   1.453   1.885  0.2596  0.7565  0.4700
 1530SOL     OW 6117   2.366   0.086   2.796 -0.4195 -0.1808 -0.5082
 1530SOL    HW1 6118   2.402   0.146   2.731 -0.4713  1.2180  0.6946
 1530SOL    HW2 6119   2.334   0.143   2.866 -1.8606 -1.5458  0.0139
 1530SOL     MW 6120   2.367   0.101   2.797 -0.6106 -0.1765 -0.2874
 1531SOL     OW 6121   1.136   1.895   3.864 -0.3181  0.1514  0.6558
 1531SOL    HW1 6122   1.210   1.839   3.839 -0.9069 -0.6825  0.7242
 1531SOL    HW2 6123   1.059   1.844   3.839 -0.8658  1.2466  0.0812
 1531SOL     MW 6124   1.136   1.881   3.858 -0.4636  0.1848  0.5910
 1532SOL     OW 6125   5.448   0.865   1.991 -0.0616  0.0079 -0.4502
 1532SOL    HW1 6126   5.473   0.897   2.078 -0.2322 -1.8310  0.3315
 1532SOL    HW2 6127   5.407   0.940   1.948 -0.8106  0.7119  1.4032
 1532SOL     MW 6128   5.446   0.878   1.997 -0.1793 -0.1374 -0.1129
 1533SOL     OW 6129   3.112   2.967   4.188  0.0465 -0.2109  0.5899
 1533SOL    HW1 6130   3.037   3.021   4.214 -0.3030 -0.3011 -0.2008
 1533SOL    HW2 6131   3.188   3.023   4.201 -0.3482  0.6577 -0.6850
 1533SOL     MW 6132   3.112   2.981   4.193 -0.0487 -0.1112  0.3255
 1534SOL     OW 6133   2.839   1.899   0.341  0.7112  1.0022  0.6893
 1534SOL    HW1 6134   2.796   1.898   0.256  2.8699  1.4657 -0.4763
 1534SOL    HW2 6135   2.864   1.991   0.354  0.6066  0.8921  1.7241
 1534SOL     MW 6136   2.837   1.911   0.332  0.9742  1.0474  0.6726
 1535SOL     OW 6137   1.768   1.344   0.656  0.7563 -1.1520 -0.0566
 1535SOL    HW1 6138   1.859   1.341   0.683  0.9096 -2.1952 -0.6319
 1535SOL    HW2 6139   1.749   1.255   0.626 -0.4946 -0.9902  0.2112
 1535SOL     MW 6140   1.777   1.332   0.655  0.6158 -1.2649 -0.0960
 1536SOL     OW 6141   5.093   2.309   4.473  0.1375  0.6665 -0.3280
 1536SOL    HW1 6142   5.033   2.235   4.482  0.7501  0.2210  0.2136
 1536SOL    HW2 6143   5.058   2.359   4.399 -0.1826 -0.2562 -0.8230
 1536SOL     MW 6144   5.080   2.306   4.465  0.1749  0.4914 -0.3221
 1537SOL     OW 6145   0.275   3.631   0.379  0.4691  0.2544 -0.3335
 1537SOL    HW1 6146   0.314   3.708   0.421 -0.6461  1.3829 -1.2941
 1537SOL    HW2 6147   0.311   3.633   0.290  1.4324 -1.1040 -0.0101
 1537SOL     MW 6148   0.285   3.641   0.373  0.4497  0.2250 -0.4151
 1538SOL     OW 6149   0.217   4.584   1.613  0.2445 -0.4774  0.2581
 1538SOL    HW1 6150   0.166   4.509   1.583 -0.3314  0.1666 -0.3951
 1538SOL    HW2 6151   0.298   4.546   1.647  0.5253 -1.3051 -1.2634
 1538SOL     MW 6152   0.221   4.570   1.614  0.2067 -0.5009 -0.0203
 1539SOL     OW 6153   2.399   3.021   5.259 -0.2557  0.1619  0.3012
 1539SOL    HW1 6154   2.458   3.096   5.261  0.8478 -0.6613 -0.1610
 1539SOL    HW2 6155   2.433   2.961   5.325 -0.6617 -0.2550  0.1410
 1539SOL     MW 6156   2.411   3.023   5.268 -0.1664  0.0032  0.2215
 1540SOL     OW 6157   2.308   5.134   5.242  0.5652 -0.2910 -0.2402
 1540SOL    HW1 6158   2.371   5.116   5.312  0.6378  1.5627  0.2071
 1540SOL    HW2 6159   2.240   5.186   5.283  1.1387  1.7656 -1.7137
 1540SOL     MW 6160   2.308   5.138   5.256  0.6479  0.2096 -0.3716
 1541SOL     OW 6161   3.775   1.945   3.386  0.2514 -0.2438 -0.1465
 1541SOL    HW1 6162   3.840   1.876   3.377  0.1012 -0.2519 -1.3958
 1541SOL    HW2 6163   3.805   2.014   3.326 -0.8176 -0.2061 -0.6637
 1541SOL     MW 6164   3.787   1.945   3.377  0.0953 -0.2400 -0.3726
 1542SOL     OW 6165   3.970   1.582   1.389 -0.3990  0.3449 -0.0329
 1542SOL    HW1 6166   3.886   1.599   1.431 -0.0116 -2.2524  2.0745
 1542SOL    HW2 6167   3.981   1.487   1.395  1.3829  0.2489 -2.9381
 1542SOL     MW 6168   3.961   1.572   1.395 -0.1213  0.0001 -0.1350
 1543SOL     OW 6169   4.152   1.202   3.001  0.0630 -0.4447  0.4144
 1543SOL    HW1 6170   4.100   1.249   3.066  1.7956  1.8710  0.2823
 1543SOL    HW2 6171   4.115   1.229   2.916  0.2672 -0.3049  0.3682
 1543SOL     MW 6172   4.141   1.212   2.998  0.3109 -0.1303  0.3916
 1544SOL     OW 6173   0.622   5.400   3.382  0.0957 -0.3662  0.6196
 1544SOL    HW1 6174   0.553   5.420   3.446 -0.3755 -0.9230  0.3049
 1544SOL    HW2 6175   0.659   5.484   3.358 -0.2221 -0.0911  1.0813
 1544SOL     MW 6176   0.618   5.413   3.387 -0.0053 -0.4023  0.6384
 1545SOL     OW 6177   3.086   0.749   5.136 -0.7085 -0.0879  0.0412
 1545SOL    HW1 6178   3.076   0.720   5.227  1.9981  0.7743  0.7040
 1545SOL    HW2 6179   3.140   0.682   5.095 -0.3744  0.4330 -0.3958
 1545SOL     MW 6180   3.091   0.737   5.142 -0.3193  0.0892  0.0701
 1546SOL     OW 6181   0.212   1.254   3.629 -0.0019 -0.1904  0.0591
 1546SOL    HW1 6182   0.136   1.218   3.584  2.1755 -2.0784 -2.4497
 1546SOL    HW2 6183   0.269   1.284   3.558  1.8822  0.5093  1.7811
 1546SOL     MW 6184   0.210   1.253   3.614  0.5180 -0.3425 -0.0417
 1547SOL     OW 6185   0.873   0.139   3.566  0.1987  0.0398  0.4221
 1547SOL    HW1 6186   0.921   0.221   3.559 -0.6914  0.6026  0.8177
 1547SOL    HW2 6187   0.814   0.139   3.491 -0.5417  0.2610  0.9922
 1547SOL     MW 6188   0.872   0.149   3.555 -0.0100  0.1402  0.5457
 1548SOL     OW 6189   4.523   4.550   1.510  0.2665 -0.1851  0.6885
 1548SOL    HW1 6190   4.506   4.456   1.500 -0.5705 -0.2092  2.0237
 1548SOL    HW2 6191   4.606   4.564   1.465  0.2664 -1.5030  0.2085
 1548SOL     MW 6192   4.531   4.540   1.503  0.1594 -0.3569  0.7979
 1549SOL     OW 6193   3.616   3.000   1.388  0.1343  0.2278  0.3794
 1549SOL    HW1 6194   3.636   2.929   1.327 -1.1388 -0.8358  1.1554
 1549SOL    HW2 6195   3.589   2.955   1.468 -1.2034  1.5804  0.7241
 1549SOL     MW 6196   3.615   2.985   1.391 -0.1999  0.2648  0.5228
 1550SOL     OW 6197   2.969   1.340   0.513 -0.2607 -0.1831  0.0042
 1550SOL    HW1 6198   2.949   1.383   0.430  1.1208  0.4922 -0.0042
 1550SOL    HW2 6199   3.054   1.298   0.498  0.1512  0.2108  1.1788
 1550SOL     MW 6200   2.978   1.340   0.500 -0.0311 -0.0462  0.1535
 1551SOL     OW 6201   3.002   3.558   3.156 -0.1234  0.3653 -0.3935
 1551SOL    HW1 6202   3.034   3.609   3.230  0.8589  0.3855 -0.8180
 1551SOL    HW2 6203   3.079   3.515   3.120 -0.8783 -1.2083 -0.2408
 1551SOL     MW 6204   3.016   3.559   3.161 -0.0943  0.1665 -0.4283
 1552SOL     OW 6205   2.918   1.775   2.521 -0.1076  0.3203 -0.3061
 1552SOL    HW1 6206   2.961   1.698   2.484  1.0320  1.2887 -1.0523
 1552SOL    HW2 6207   2.928   1.764   2.616  1.2187  0.1945 -0.4410
 1552SOL     MW 6208   2.924   1.763   2.529  0.2081  0.4282 -0.4189
 1553SOL     OW 6209   1.057   5.167   0.791  0.2901 -0.6018 -0.1009
 1553SOL    HW1 6210   1.029   5.176   0.882  0.4429 -1.0769 -0.0001
 1553SOL    HW2 6211   1.025   5.080   0.766  2.4186 -1.5553  0.2987
 1553SOL     MW 6212   1.049   5.157   0.800  0.5822 -0.7846 -0.0369
 1554SOL     OW 6213   4.345   4.947   1.004 -0.3254  0.1856 -0.2068
 1554SOL    HW1 6214   4.389   4.868   0.971 -0.4595 -0.0375  0.1422
 1554SOL    HW2 6215   4.256   4.917   1.025 -0.8222  0.7518 -1.4060
 1554SOL     MW 6216   4.339   4.933   1.002 -0.4062  0.2295 -0.3156
 1555SOL     OW 6217   3.823   4.994   0.604 -0.2712  0.0192 -0.1217
 1555SOL    HW1 6218   3.891   5.005   0.670 -0.1594  1.0004 -0.3856
 1555SOL    HW2 6219   3.749   4.957   0.653  0.1714 -0.3007  0.3231
 1555SOL     MW 6220   3.822   4.991   0.619 -0.2002  0.1039 -0.0985
 1556SOL     OW 6221   5.237   0.913   3.624 -0.1348 -0.0648 -0.3960
 1556SOL    HW1 6222   5.230   0.853   3.550  0.3946 -0.1402 -0.3891
 1556SOL    HW2 6223   5.300   0.979   3.596  0.8093 -0.6233  0.3248
 1556SOL     MW 6224   5.244   0.914   3.611  0.0538 -0.1459 -0.3029
 1557SOL     OW 6225   1.012   2.194   1.942 -0.3465  0.1919 -0.8899
 1557SOL    HW1 6226   1.044   2.246   2.015 -0.0932  0.5073 -1.2222
 1557SOL    HW2 6227   1.051   2.108   1.955 -0.7968  0.0664 -0.3177
 1557SOL     MW 6228   1.021   2.190   1.953 -0.3718  0.2162 -0.8592
 1558SOL     OW 6229   3.476   2.403   5.345  0.1152  0.1046  0.0221
 1558SOL    HW1 6230   3.476   2.455   5.265  1.6861  0.8248  0.4433
 1558SOL    HW2 6231   3.500   2.315   5.317  1.9054  0.6241 -0.1940
 1558SOL     MW 6232   3.479   2.398   5.331  0.5455  0.2633  0.0484
 1559SOL     OW 6233   1.452   4.761   3.234 -0.4189 -0.2546  0.2774
 1559SOL    HW1 6234   1.510   4.812   3.291 -1.1543  0.1558  0.6738
 1559SOL    HW2 6235   1.501   4.681   3.215  0.5894  0.4154 -0.0224
 1559SOL     MW 6236   1.466   4.758   3.239 -0.3839 -0.1163  0.2898
 1560SOL     OW 6237   3.145   1.676   1.344  0.3503  0.1531  0.3882
 1560SOL    HW1 6238   3.169   1.686   1.251  0.1437  1.0882  0.4298
 1560SOL    HW2 6239   3.064   1.726   1.353 -0.8490 -1.7019  0.6001
 1560SOL     MW 6240   3.137   1.683   1.333  0.1703  0.0354  0.4207
 1561SOL     OW 6241   2.752   1.734   1.030 -0.5628 -0.1434  0.2460
 1561SOL    HW1 6242   2.667   1.719   1.073  0.0429  1.4255  2.1173
 1561SOL    HW2 6243   2.788   1.811   1.074  1.9949 -0.9475 -0.2673
 1561SOL     MW 6244   2.745   1.742   1.041 -0.1579 -0.0455  0.4198
 1562SOL     OW 6245   0.290   0.938   4.589 -0.3827  1.1058  0.1551
 1562SOL    HW1 6246   0.268   0.850   4.620  2.0947  0.5052  0.4342
 1562SOL    HW2 6247   0.235   0.996   4.640 -0.8331 -0.2027  1.2285
 1562SOL     MW 6248   0.280   0.934   4.599 -0.1232  0.8614  0.3282
 1563SOL     OW 6249   1.716   2.804   4.656  0.6125  0.6826  0.0600
 1563SOL    HW1 6250   1.696   2.734   4.595  0.2666  0.7243  0.1234
 1563SOL    HW2 6251   1.639   2.809   4.714  1.1133  0.3566  0.7724
 1563SOL     MW 6252   1.704   2.796   4.656  0.6324  0.6462  0.1593
 1564SOL     OW 6253   2.659   3.620   1.013 -0.1167 -0.0117 -0.4458
 1564SOL    HW1 6254   2.730   3.578   1.062 -1.7290 -1.4647  0.7808
 1564SOL    HW2 6255   2.582   3.609   1.069 -1.7681 -0.4589 -2.6538
 1564SOL     MW 6256   2.658   3.613   1.026 -0.5345 -0.2549 -0.5714
 1565SOL     OW 6257   1.194   5.306   3.278  0.1231  0.1311  0.0200
 1565SOL    HW1 6258   1.155   5.387   3.312  0.9932 -0.3477  2.3154
 1565SOL    HW2 6259   1.246   5.334   3.203 -1.1885  1.3716 -0.4853
 1565SOL     MW 6260   1.195   5.320   3.273  0.0666  0.2286  0.2492
 1566SOL     OW 6261   1.937   0.934   3.966 -0.1129 -0.2600  0.2375
 1566SOL    HW1 6262   1.855   0.974   3.995 -0.0631 -0.1045  0.1665
 1566SOL    HW2 6263   1.949   0.968   3.877 -0.1103 -0.4960  0.1473
 1566SOL     MW 6264   1.928   0.944   3.959 -0.1062 -0.2703  0.2169
 1567SOL     OW 6265   2.802   0.368   4.269  0.7844  0.0531  0.0271
 1567SOL    HW1 6266   2.883   0.389   4.316  0.4650  1.2068  0.0944
 1567SOL    HW2 6267   2.739   0.433   4.299 -0.0277 -0.5002 -0.4307
 1567SOL     MW 6268   2.805   0.379   4.279  0.6395  0.1299 -0.0229
 1568SOL     OW 6269   2.201   4.520   3.186 -0.0506  0.0540 -0.2004
 1568SOL    HW1 6270   2.177   4.546   3.097 -0.9432 -1.2382 -0.3734
 1568SOL    HW2 6271   2.127   4.549   3.240  1.3024  2.4885  0.4673
 1568SOL     MW 6272   2.188   4.527   3.182  0.0083  0.2002 -0.1371
 1569SOL     OW 6273   4.143   0.628   2.367  0.2382  0.0536  0.3293
 1569SOL    HW1 6274   4.214   0.565   2.377  0.2689  0.0684  0.2026
 1569SOL    HW2 6275   4.186   0.713   2.368  0.3932  0.0239 -1.2075
 1569SOL     MW 6276   4.158   0.631   2.368  0.2620  0.0517  0.1164
 1570SOL     OW 6277   4.702   5.004   5.443  0.2742 -0.3426  0.6165
 1570SOL    HW1 6278   4.703   5.038   5.532  0.0066  0.5730  0.2796
 1570SOL    HW2 6279   4.634   4.937   5.443 -1.2347  1.1428  0.5757
 1570SOL     MW 6280   4.693   5.000   5.454  0.0468 -0.0352  0.5681
 1571SOL     OW 6281   3.054   4.034   1.385 -0.5173  0.0174 -0.2874
 1571SOL    HW1 6282   2.971   4.080   1.368 -0.1545  0.8959  0.2314
 1571SOL    HW2 6283   3.027   3.947   1.413 -1.2415  0.0210 -0.9068
 1571SOL     MW 6284   3.040   4.029   1.386 -0.5636  0.1303 -0.3003
 1572SOL     OW 6285   0.505   3.515   4.519 -0.2912  0.0775  0.0828
 1572SOL    HW1 6286   0.536   3.530   4.430 -1.0155  1.0891 -0.0181
 1572SOL    HW2 6287   0.410   3.521   4.513 -0.3849 -0.6088  0.7960
 1572SOL     MW 6288   0.497   3.518   4.507 -0.3959  0.1191  0.1612
 1573SOL     OW 6289   3.545   2.500   3.502  0.7655 -0.0915 -0.3269
 1573SOL    HW1 6290   3.486   2.431   3.534 -1.2375  0.7266 -2.0942
 1573SOL    HW2 6291   3.574   2.544   3.582 -3.2377  1.2332  0.6597
 1573SOL     MW 6292   3.541   2.497   3.516 -0.0034  0.1828 -0.4268
 1574SOL     OW 6293   1.601   1.490   1.088  0.4999 -0.1703  0.0121
 1574SOL    HW1 6294   1.604   1.465   0.996  0.5846  0.1689 -0.0797
 1574SOL    HW2 6295   1.514   1.465   1.117  0.3316  0.0798 -0.2681
 1574SOL     MW 6296   1.590   1.484   1.080  0.4892 -0.0948 -0.0355
 1575SOL     OW 6297   3.580   4.268   2.106  0.0897  0.5798 -0.6843
 1575SOL    HW1 6298   3.651   4.290   2.167 -0.9793 -0.9418  1.2063
 1575SOL    HW2 6299   3.624   4.219   2.036  0.8681 -0.9920  0.8288
 1575SOL     MW 6300   3.595   4.265   2.105  0.0525  0.1838 -0.2486
 1576SOL     OW 6301   4.198   3.780   1.820 -0.5624  0.4156  0.0290
 1576SOL    HW1 6302   4.183   3.712   1.754 -0.8986  1.4699 -1.0224
 1576SOL    HW2 6303   4.262   3.839   1.779  0.2709  0.3648  1.2089
 1576SOL     MW 6304   4.205   3.779   1.806 -0.4988  0.5441  0.0455
 1577SOL     OW 6305   0.678   4.540   5.321 -0.1753  0.0644  0.2566
 1577SOL    HW1 6306   0.642   4.559   5.234  0.5783 -1.0267 -0.3172
 1577SOL    HW2 6307   0.749   4.604   5.332  0.0955 -0.1592 -0.1756
 1577SOL     MW 6308   0.682   4.551   5.311 -0.0442 -0.1039  0.1279
 1578SOL     OW 6309   3.271   1.383   3.068 -0.4073  0.1639 -0.4093
 1578SOL    HW1 6310   3.287   1.330   3.146 -0.8519 -0.8860 -0.9924
 1578SOL    HW2 6311   3.348   1.438   3.059  0.0523 -0.3536  0.2653
 1578SOL     MW 6312   3.283   1.383   3.077 -0.4054 -0.0367 -0.3976
 1579SOL     OW 6313   3.549   3.593   2.685 -0.1087 -0.0571 -0.5783
 1579SOL    HW1 6314   3.617   3.611   2.749 -1.4499 -1.6314  1.3942
 1579SOL    HW2 6315   3.504   3.677   2.674 -0.6152  0.0020  1.5175
 1579SOL     MW 6316   3.552   3.606   2.692 -0.3452 -0.2511 -0.0575
 1580SOL     OW 6317   2.055   3.254   5.273 -0.1024 -0.1855  0.4630
 1580SOL    HW1 6318   1.983   3.255   5.335 -0.7721 -0.9054 -0.2840
 1580SOL    HW2 6319   2.081   3.162   5.267 -0.2343 -0.1707 -0.5300
 1580SOL     MW 6320   2.049   3.243   5.280 -0.2050 -0.2758  0.2403
 1581SOL     OW 6321   2.798   3.895   1.017 -0.1110  0.6295 -0.0555
 1581SOL    HW1 6322   2.780   3.801   1.016  0.0675  0.5849 -1.8966
 1581SOL    HW2 6323   2.736   3.930   1.082 -1.2365 -0.5604 -0.4401
 1581SOL     MW 6324   2.787   3.888   1.025 -0.2322  0.4714 -0.3404
 1582SOL     OW 6325   2.777   3.317   1.504 -0.0371 -0.1684  0.1387
 1582SOL    HW1 6326   2.747   3.280   1.421 -0.8257  0.3116  0.1918
 1582SOL    HW2 6327   2.860   3.359   1.483 -0.2213 -0.0665 -0.4105
 1582SOL     MW 6328   2.783   3.318   1.491 -0.1617 -0.0939  0.0752
 1583SOL     OW 6329   3.938   2.005   2.866 -0.2560 -0.4960 -0.5427
 1583SOL    HW1 6330   3.925   1.932   2.807 -1.0329  0.3204 -1.4239
 1583SOL    HW2 6331   3.942   2.082   2.809 -0.9241  0.3032  0.4346
 1583SOL     MW 6332   3.937   2.006   2.851 -0.4409 -0.2892 -0.5304
 1584SOL     OW 6333   0.385   4.677   3.817 -0.2593 -0.6367 -0.4011
 1584SOL    HW1 6334   0.335   4.610   3.769 -0.0400 -0.5563 -0.7438
 1584SOL    HW2 6335   0.474   4.668   3.785 -0.1410 -0.4756 -0.1198
 1584SOL     MW 6336   0.390   4.667   3.807 -0.2160 -0.6058 -0.4090
 1585SOL     OW 6337   4.179   1.882   0.656  0.0123 -0.1214 -0.4120
 1585SOL    HW1 6338   4.229   1.962   0.669 -1.7741  1.1439 -0.9702
 1585SOL    HW2 6339   4.186   1.836   0.740  2.2937 -0.1712 -0.5592
 1585SOL     MW 6340   4.186   1.886   0.669  0.0757  0.0342 -0.5023
 1586SOL     OW 6341   1.038   0.343   3.612 -0.1036 -0.3040  0.2542
 1586SOL    HW1 6342   1.005   0.414   3.557 -0.5989 -0.2134  0.6542
 1586SOL    HW2 6343   0.996   0.358   3.697  0.4032 -0.6192  0.5669
 1586SOL     MW 6344   1.029   0.354   3.616 -0.1021 -0.3327  0.3454
 1587SOL     OW 6345   0.828   2.937   4.416 -0.5039 -0.1712  0.6476
 1587SOL    HW1 6346   0.838   2.932   4.321 -0.6578 -0.6017  0.6473
 1587SOL    HW2 6347   0.771   2.862   4.437  1.0286 -1.2065  1.2908
 1587SOL     MW 6348   0.822   2.927   4.406 -0.3274 -0.3588  0.7299
 1588SOL     OW 6349   2.734   3.734   1.310  0.1097 -0.4103 -0.7828
 1588SOL    HW1 6350   2.642   3.725   1.334  0.2230 -0.0562 -0.1898
 1588SOL    HW2 6351   2.757   3.650   1.270 -0.5601 -0.3746 -1.2413
 1588SOL     MW 6352   2.725   3.722   1.308  0.0385 -0.3604 -0.7656
 1589SOL     OW 6353   0.948   4.849   0.514 -0.1942  0.1414 -0.4302
 1589SOL    HW1 6354   1.013   4.908   0.476  1.3343 -1.6597 -0.7996
 1589SOL    HW2 6355   0.947   4.774   0.455 -2.3654 -0.0740 -0.2011
 1589SOL     MW 6356   0.956   4.847   0.501 -0.2765 -0.1167 -0.4481
 1590SOL     OW 6357   0.989   4.343   3.706  0.1066  0.2987  0.2095
 1590SOL    HW1 6358   1.022   4.255   3.722 -0.6180  0.3644  2.4356
 1590SOL    HW2 6359   0.944   4.337   3.622 -0.6981 -1.7017  0.7230
 1590SOL     MW 6360   0.988   4.331   3.697 -0.0892  0.0510  0.5602
 1591SOL     OW 6361   1.946   1.693   0.182 -0.1044 -0.3388  0.0810
 1591SOL    HW1 6362   1.971   1.695   0.090  1.5883  0.5183  0.5041
 1591SOL    HW2 6363   1.935   1.600   0.202 -2.0452 -0.4747 -1.3136
 1591SOL     MW 6364   1.948   1.681   0.173 -0.1362 -0.2465 -0.0434
 1592SOL     OW 6365   3.581   1.941   3.626  0.1632  0.3386  0.3456
 1592SOL    HW1 6366   3.629   1.945   3.543 -0.5778 -1.6958 -0.2407
 1592SOL    HW2 6367   3.490   1.958   3.601 -0.2805 -1.6383  0.4792
 1592SOL     MW 6368   3.575   1.944   3.612  0.0116 -0.1749  0.2877
 1593SOL     OW 6369   3.339   1.302   4.711  0.1884  0.0584 -0.3308
 1593SOL    HW1 6370   3.301   1.252   4.783  0.1645  0.8103  0.1885
 1593SOL    HW2 6371   3.265   1.352   4.676  0.1573 -0.4593 -1.0151
 1593SOL     MW 6372   3.324   1.302   4.716  0.1813  0.0884 -0.3519
 1594SOL     OW 6373   2.958   0.577   0.581 -0.5055  0.0568 -0.0858
 1594SOL    HW1 6374   2.869   0.603   0.603 -0.6607  0.4267 -1.0998
 1594SOL    HW2 6375   2.948   0.511   0.512  0.0047  0.3781 -0.4776
 1594SOL     MW 6376   2.945   0.572   0.575 -0.4600  0.1453 -0.2658
 1595SOL     OW 6377   4.774   0.790   0.557  1.0913  0.0508  0.3013
 1595SOL    HW1 6378   4.769   0.695   0.550 -0.6044  0.0336  1.3760
 1595SOL    HW2 6379   4.707   0.822   0.497  0.2810  0.4750  1.3948
 1595SOL     MW 6380   4.765   0.782   0.548  0.7705  0.1029  0.5789
 1596SOL     OW 6381   0.520   0.132   3.091  0.0846  0.1727 -0.3212
 1596SOL    HW1 6382   0.576   0.055   3.099 -1.4238 -0.8731  0.7772
 1596SOL    HW2 6383   0.531   0.178   3.174 -2.2130 -1.2150  0.8858
 1596SOL     MW 6384   0.528   0.128   3.103 -0.4026 -0.1388 -0.0261
 1597SOL     OW 6385   0.389   1.636   2.008  0.3548 -0.3576 -0.3095
 1597SOL    HW1 6386   0.358   1.560   2.057  1.6494 -0.0340  1.0912
 1597SOL    HW2 6387   0.426   1.599   1.928 -0.9371 -0.9854 -0.6474
 1597SOL     MW 6388   0.390   1.621   2.004  0.3552 -0.3965 -0.1735
 1598SOL     OW 6389   3.573   4.551   2.973  0.1470 -0.0150 -0.0029
 1598SOL    HW1 6390   3.504   4.491   3.000  0.2566 -1.5343 -2.7091
 1598SOL    HW2 6391   3.527   4.624   2.931  0.1039 -0.3313 -0.5219
 1598SOL     MW 6392   3.558   4.553   2.971  0.1555 -0.2500 -0.4157
 1599SOL     OW 6393   2.059   3.898   2.336  0.4875 -0.2225 -0.3409
 1599SOL    HW1 6394   1.992   3.860   2.393 -0.5851  0.1195 -1.3368
 1599SOL    HW2 6395   2.120   3.827   2.319  0.2084 -0.6323  0.3177
 1599SOL     MW 6396   2.058   3.884   2.341  0.3145 -0.2312 -0.3840
 1600SOL     OW 6397   3.588   2.815   1.130  0.5253 -0.2773 -0.0304
 1600SOL    HW1 6398   3.499   2.846   1.113  0.3412  0.2245  1.6133
 1600SOL    HW2 6399   3.597   2.737   1.076 -1.3996 -1.0905  0.7371
 1600SOL     MW 6400   3.577   2.809   1.121  0.2553 -0.3172  0.2783
 1601SOL     OW 6401   4.592   2.046   2.168 -0.4660  0.3588 -0.1947
 1601SOL    HW1 6402   4.586   1.999   2.085 -0.6622  0.0609 -0.0137
 1601SOL    HW2 6403   4.660   2.000   2.217 -0.2399  0.6318 -0.2542
 1601SOL     MW 6404   4.600   2.034   2.164 -0.4622  0.3556 -0.1791
 1602SOL     OW 6405   3.174   5.288   0.119  0.1917  0.0494 -0.2869
 1602SOL    HW1 6406   3.146   5.236   0.044  0.2353 -0.6214  0.1539
 1602SOL    HW2 6407   3.239   5.349   0.083 -0.1923  0.1098 -0.8936
 1602SOL     MW 6408   3.179   5.289   0.105  0.1481 -0.0287 -0.3081
 1603SOL     OW 6409   3.965   3.839   3.527  0.1248 -0.0114  0.0162
 1603SOL    HW1 6410   3.928   3.893   3.458 -0.1814 -1.2951 -0.8527
 1603SOL    HW2 6411   3.915   3.758   3.525  0.5985 -0.3688  1.2560
 1603SOL     MW 6412   3.954   3.836   3.518  0.1463 -0.2215  0.0637
 1604SOL     OW 6413   2.649   2.817   2.752 -0.5674  0.2609 -0.4151
 1604SOL    HW1 6414   2.704   2.810   2.830 -1.7845  0.0792  0.4664
 1604SOL    HW2 6415   2.681   2.895   2.707  0.8785 -0.2607 -0.3358
 1604SOL     MW 6416   2.660   2.826   2.756 -0.5381  0.1709 -0.2921
 1605SOL     OW 6417   1.536   2.989   5.418  0.2446  0.7755 -0.6825
 1605SOL    HW1 6418   1.534   3.038   5.500  1.8527  0.0065 -0.1367
 1605SOL    HW2 6419   1.470   2.920   5.430  0.7977  0.3709  0.1979
 1605SOL     MW 6420   1.527   2.986   5.430  0.5213  0.6253 -0.5000
 1606SOL     OW 6421   3.266   0.736   4.550  0.0696 -0.2539 -0.1349
 1606SOL    HW1 6422   3.348   0.697   4.579  0.7187  0.5189 -0.8765
 1606SOL    HW2 6423   3.287   0.777   4.466 -0.0714  3.1135  1.2821
 1606SOL     MW 6424   3.279   0.737   4.543  0.1346  0.2761 -0.0485
 1607SOL     OW 6425   3.702   2.213   5.436  0.0706 -0.1347  0.2100
 1607SOL    HW1 6426   3.776   2.160   5.405  0.1779  0.3277 -0.3294
 1607SOL    HW2 6427   3.638   2.149   5.467  0.6079 -0.5500  0.4980
 1607SOL     MW 6428   3.703   2.198   5.436  0.1531 -0.1287  0.1779
 1608SOL     OW 6429   5.343   1.331   2.729  0.5208  0.3716 -0.5727
 1608SOL    HW1 6430   5.308   1.300   2.646  1.5512  1.1776 -1.3259
 1608SOL    HW2 6431   5.411   1.267   2.752  1.8477  1.3770 -1.5488
 1608SOL     MW 6432   5.347   1.319   2.722  0.8226  0.6035 -0.7941
 1609SOL     OW 6433   1.171   2.599   4.837 -0.1291  0.2131 -0.4697
 1609SOL    HW1 6434   1.124   2.519   4.813  0.1909 -0.4127  0.8577
 1609SOL    HW2 6435   1.260   2.569   4.856 -0.2921  0.6539  1.1813
 1609SOL     MW 6436   1.176   2.585   4.837 -0.1090  0.1894 -0.0884
 1610SOL     OW 6437   2.315   4.390   1.850 -0.0139  0.0247 -0.7251
 1610SOL    HW1 6438   2.321   4.414   1.942  0.3083 -0.3558 -0.6473
 1610SOL    HW2 6439   2.291   4.298   1.851 -0.1250  0.0499 -1.0232
 1610SOL     MW 6440   2.312   4.381   1.862  0.0131 -0.0208 -0.7533
 1611SOL     OW 6441   2.204   3.254   3.855  0.2189  0.0342 -0.4102
 1611SOL    HW1 6442   2.268   3.252   3.927 -0.4290  1.5966  0.2600
 1611SOL    HW2 6443   2.226   3.332   3.806 -0.3871 -0.1155 -0.9333
 1611SOL     MW 6444   2.215   3.264   3.858  0.0584  0.2151 -0.3914
 1612SOL     OW 6445   0.609   0.867   3.046 -0.7532  0.1246  0.1364
 1612SOL    HW1 6446   0.689   0.873   3.098 -0.0073 -0.4106 -0.9129
 1612SOL    HW2 6447   0.571   0.782   3.071 -0.2506 -0.2574 -0.3835
 1612SOL     MW 6448   0.614   0.857   3.056 -0.5934  0.0072 -0.0645
 1613SOL     OW 6449   3.136   0.910   4.860  0.5503  0.5928 -0.2077
 1613SOL    HW1 6450   3.078   0.905   4.783  0.5126 -1.2768 -0.1143
 1613SOL    HW2 6451   3.156   0.818   4.880  3.6365  1.1415 -0.2798
 1613SOL     MW 6452   3.131   0.897   4.853  0.9406  0.4237 -0.2050
 1614SOL     OW 6453   0.482   4.033   2.119  0.5240 -0.0678  0.2912
 1614SOL    HW1 6454   0.476   3.953   2.171 -0.2640  0.0924  0.4540
 1614SOL    HW2 6455   0.531   4.007   2.041  3.2912  0.0770  1.8459
 1614SOL     MW 6456   0.488   4.019   2.115  0.7774 -0.0288  0.5111
 1615SOL     OW 6457   4.376   1.152   4.562  0.0357  0.3866 -0.1753
 1615SOL    HW1 6458   4.452   1.180   4.614 -0.1423  0.3700  0.0966
 1615SOL    HW2 6459   4.401   1.067   4.527  0.4403  0.7132 -0.7110
 1615SOL     MW 6460   4.389   1.145   4.564  0.0647  0.4263 -0.2091
 1616SOL     OW 6461   2.284   2.298   1.292 -0.3121 -0.0465 -0.2848
 1616SOL    HW1 6462   2.296   2.393   1.292  0.8109 -0.1730  0.4099
 1616SOL    HW2 6463   2.280   2.274   1.199 -1.6804  0.7802 -0.4743
 1616SOL     MW 6464   2.285   2.307   1.280 -0.3435  0.0432 -0.2202
 1617SOL     OW 6465   4.781   1.465   0.704  0.0803 -0.0502  0.1545
 1617SOL    HW1 6466   4.732   1.487   0.784 -1.1701 -1.2185 -0.2379
 1617SOL    HW2 6467   4.762   1.536   0.643  0.0909  0.2565  0.5049
 1617SOL     MW 6468   4.772   1.477   0.707 -0.0784 -0.1605  0.1491
 1618SOL     OW 6469   4.168   1.818   3.352 -0.2563 -0.0716  0.5677
 1618SOL    HW1 6470   4.145   1.911   3.358  0.6948  0.2986 -0.9438
 1618SOL    HW2 6471   4.263   1.816   3.368 -0.1240 -0.6557 -0.2188
 1618SOL     MW 6472   4.177   1.830   3.355 -0.1176 -0.0990  0.2735
 1619SOL     OW 6473   1.034   4.600   3.938 -0.4463  0.1275 -0.7250
 1619SOL    HW1 6474   1.000   4.661   3.872 -0.8717 -1.1380 -1.7228
 1619SOL    HW2 6475   0.955   4.559   3.975 -0.2114  0.8042  0.5869
 1619SOL     MW 6476   1.019   4.603   3.934 -0.4707  0.0522 -0.6848
 1620SOL     OW 6477   1.357   1.876   1.688  0.0525  1.2337 -0.7061
 1620SOL    HW1 6478   1.423   1.904   1.624  1.2581 -0.2742 -0.1817
 1620SOL    HW2 6479   1.352   1.781   1.678  0.7315  0.8549  1.8199
 1620SOL     MW 6480   1.365   1.868   1.678  0.2937  0.9922 -0.3156
 1621SOL     OW 6481   3.382   4.677   0.207 -0.1337 -0.1599 -0.2439
 1621SOL    HW1 6482   3.364   4.669   0.301 -0.7017 -0.9839 -0.4058
 1621SOL    HW2 6483   3.464   4.630   0.193 -0.1020 -0.1251 -0.1735
 1621SOL     MW 6484   3.390   4.670   0.217 -0.2023 -0.2609 -0.2556
 1622SOL     OW 6485   4.889   1.015   1.642  0.3702  0.2307  0.2352
 1622SOL    HW1 6486   4.951   0.974   1.582  0.5665  0.7446  0.0872
 1622SOL    HW2 6487   4.845   0.941   1.685  0.9171 -0.1336  0.1730
 1622SOL     MW 6488   4.891   1.000   1.640  0.4653  0.2498  0.2083
 1623SOL     OW 6489   0.332   4.927   0.665 -0.1588 -0.1605 -0.6417
 1623SOL    HW1 6490   0.410   4.879   0.692  0.8107  0.1328 -2.7233
 1623SOL    HW2 6491   0.329   5.002   0.724 -0.0139 -1.1888  0.7293
 1623SOL     MW 6492   0.341   4.931   0.676 -0.0161 -0.2546 -0.7327
 1624SOL     OW 6493   3.031   0.438   5.051  0.1427 -0.1286  0.1824
 1624SOL    HW1 6494   2.972   0.511   5.071  1.0759  1.0864 -1.2932
 1624SOL    HW2 6495   2.996   0.401   4.970  0.8621  0.0436 -0.2198
 1624SOL     MW 6496   3.019   0.443   5.043  0.3542  0.0490 -0.0580
 1625SOL     OW 6497   3.703   3.345   1.213 -0.1975 -1.1023  0.1254
 1625SOL    HW1 6498   3.695   3.440   1.211 -0.7199 -1.1408  0.2248
 1625SOL    HW2 6499   3.739   3.326   1.300  1.2501 -0.9086 -0.4170
 1625SOL     MW 6500   3.707   3.355   1.224 -0.0791 -1.0824  0.0687
 1626SOL     OW 6501   0.292   2.811   0.566 -0.3103 -0.0589 -0.3222
 1626SOL    HW1 6502   0.318   2.872   0.497  0.2555  0.2774  0.1800
 1626SOL    HW2 6503   0.284   2.726   0.522  0.4125  0.0792 -0.7335
 1626SOL     MW 6504   0.294   2.808   0.552 -0.1453  0.0018 -0.3106
 1627SOL     OW 6505   4.028   5.098   0.786 -0.1459 -0.1341 -0.2286
 1627SOL    HW1 6506   4.045   5.046   0.864  3.0771 -0.0725 -0.7550
 1627SOL    HW2 6507   3.978   5.173   0.818  0.5964 -0.3950  1.6646
 1627SOL     MW 6508   4.024   5.101   0.800  0.3617 -0.1596 -0.0536
 1628SOL     OW 6509   2.929   4.590   1.162  0.0167  0.2768 -0.1499
 1628SOL    HW1 6510   2.957   4.586   1.254  0.6409 -1.3703 -0.3767
 1628SOL    HW2 6511   2.953   4.505   1.126 -1.2478  0.4710 -1.5581
 1628SOL     MW 6512   2.936   4.579   1.169 -0.0653  0.0908 -0.3592
 1629SOL     OW 6513   4.932   5.477   2.870 -0.0340  0.0218 -0.5636
 1629SOL    HW1 6514   4.902   5.397   2.915 -1.5273  1.3783  1.0169
 1629SOL    HW2 6515   5.025   5.482   2.890 -0.4390  0.0133  1.6331
 1629SOL     MW 6516   4.940   5.467   2.878 -0.2770  0.1943 -0.0801
 1630SOL     OW 6517   4.502   0.600   4.586 -0.0067  0.2356  0.1494
 1630SOL    HW1 6518   4.473   0.630   4.672 -0.0729  1.8305 -0.3837
 1630SOL    HW2 6519   4.566   0.531   4.604 -0.8491 -0.2471  1.4336
 1630SOL     MW 6520   4.506   0.595   4.599 -0.1230  0.3780  0.2456
 1631SOL     OW 6521   2.656   2.483   5.056  0.5726 -0.0964  0.2103
 1631SOL    HW1 6522   2.746   2.449   5.052  0.8371  0.6458 -0.4449
 1631SOL    HW2 6523   2.642   2.523   4.970 -0.2356  0.1660  0.4585
 1631SOL     MW 6524   2.666   2.484   5.044  0.5030  0.0322  0.1582
 1632SOL     OW 6525   2.002   1.808   1.279 -0.0003 -0.4108  0.8304
 1632SOL    HW1 6526   1.911   1.811   1.249 -0.4789 -1.7037  2.0412
 1632SOL    HW2 6527   2.001   1.852   1.364  0.4814 -0.5681  0.9217
 1632SOL     MW 6528   1.991   1.814   1.286  0.0001 -0.5964  0.9971
 1633SOL     OW 6529   3.576   4.671   0.540  0.0638 -0.4525 -0.4191
 1633SOL    HW1 6530   3.667   4.668   0.567  0.9157  3.2993 -2.1051
 1633SOL    HW2 6531   3.572   4.615   0.462  1.3219  0.2953 -1.0660
 1633SOL     MW 6532   3.587   4.664   0.533  0.3339  0.1235 -0.7177
 1634SOL     OW 6533   1.202   2.839   5.236  0.0477 -0.5375  0.2476
 1634SOL    HW1 6534   1.264   2.830   5.163  0.5962  1.4801  0.3849
 1634SOL    HW2 6535   1.166   2.928   5.225 -0.3064 -0.4190  2.0952
 1634SOL     MW 6536   1.205   2.849   5.225  0.0726 -0.2640  0.5017
 1635SOL     OW 6537   2.023   2.088   2.088  0.1476  0.3138  0.1024
 1635SOL    HW1 6538   2.042   2.130   2.004  1.9076  0.7484  0.6948
 1635SOL    HW2 6539   1.970   2.152   2.136  0.6091  0.7788 -0.0062
 1635SOL     MW 6540   2.018   2.101   2.083  0.4319  0.4290  0.1643
 1636SOL     OW 6541   4.288   2.484   5.358  0.5930  0.2647  0.2457
 1636SOL    HW1 6542   4.341   2.425   5.411 -2.2279 -1.4443  1.3512
 1636SOL    HW2 6543   4.261   2.554   5.418  1.7510  1.3214 -0.3988
 1636SOL     MW 6544   4.291   2.486   5.372  0.3801  0.1812  0.3047
 1637SOL     OW 6545   2.114   3.020   2.358  0.2843 -0.6121  0.0190
 1637SOL    HW1 6546   2.204   2.997   2.382 -0.6703 -2.7569  1.9795
 1637SOL    HW2 6547   2.071   3.038   2.442 -1.2777 -0.3606 -0.8118
 1637SOL     MW 6548   2.120   3.019   2.372 -0.0378 -0.8545  0.1636
 1638SOL     OW 6549   0.827   5.385   5.089 -0.3708  0.6292 -0.3884
 1638SOL    HW1 6550   0.852   5.466   5.134  0.1830  0.3489 -0.1816
 1638SOL    HW2 6551   0.735   5.398   5.065 -0.6957  0.7515  0.8766
 1638SOL     MW 6552   0.819   5.397   5.091 -0.3415  0.6089 -0.2000
 1639SOL     OW 6553   3.312   2.679   2.357  0.7354  0.1568 -0.4812
 1639SOL    HW1 6554   3.408   2.687   2.360  0.7847  0.1340 -1.4638
 1639SOL    HW2 6555   3.295   2.640   2.271 -0.2262  1.2876 -0.8258
 1639SOL     MW 6556   3.322   2.675   2.346  0.6187  0.2986 -0.6511
 1640SOL     OW 6557   0.719   0.545   2.463  0.0076 -0.2881  0.2636
 1640SOL    HW1 6558   0.715   0.600   2.541  0.0139 -0.4780  0.3972
 1640SOL    HW2 6559   0.762   0.464   2.492  1.9902  0.4592 -0.4271
 1640SOL     MW 6560   0.724   0.542   2.477  0.2622 -0.2167  0.1923
 1641SOL     OW 6561   4.003   1.540   4.816 -0.4481 -0.2497 -0.2345
 1641SOL    HW1 6562   4.007   1.462   4.871  0.2572  0.3980  0.6527
 1641SOL    HW2 6563   3.978   1.507   4.729 -1.5381 -1.2898  0.4398
 1641SOL     MW 6564   4.000   1.526   4.812 -0.4973 -0.2999 -0.0346
 1642SOL     OW 6565   2.438   5.304   0.126 -0.4858  0.3062 -0.2190
 1642SOL    HW1 6566   2.390   5.258   0.194 -0.2908 -0.3219 -0.5057
 1642SOL    HW2 6567   2.389   5.385   0.113 -0.1929  0.7288  1.0967
 1642SOL     MW 6568   2.426   5.309   0.133 -0.4233  0.2799 -0.0873
 1643SOL     OW 6569   0.206   4.562   0.384  0.6637  0.0030  0.0688
 1643SOL    HW1 6570   0.205   4.656   0.403  2.3375  0.0590  0.0211
 1643SOL    HW2 6571   0.242   4.522   0.464  0.4516 -0.5418 -0.1051
 1643SOL     MW 6572   0.211   4.569   0.397  0.8508 -0.0596  0.0404
 1644SOL     OW 6573   2.425   1.305   5.176  0.1464  0.0221  0.2552
 1644SOL    HW1 6574   2.371   1.295   5.255 -0.3157 -0.1155 -0.0740
 1644SOL    HW2 6575   2.487   1.232   5.180  0.2786  0.1484  0.6068
 1644SOL     MW 6576   2.426   1.295   5.187  0.1042  0.0206  0.2581
 1645SOL     OW 6577   3.793   5.444   1.361  0.6557 -0.2394 -0.1284
 1645SOL    HW1 6578   3.723   5.380   1.369  0.2643  0.2303  0.2923
 1645SOL    HW2 6579   3.855   5.421   1.431  2.4793 -2.4998 -2.3125
 1645SOL     MW 6580   3.792   5.433   1.371  0.8390 -0.4686 -0.3542
 1646SOL     OW 6581   3.225   2.499   1.702 -0.1537 -0.2243 -0.1059
 1646SOL    HW1 6582   3.228   2.506   1.607 -1.0272 -2.7093 -0.3870
 1646SOL    HW2 6583   3.164   2.568   1.729  0.8599  1.1604 -1.2012
 1646SOL     MW 6584   3.218   2.509   1.694 -0.1358 -0.3652 -0.2821
 1647SOL     OW 6585   0.498   3.684   2.078  0.1264  0.1061 -0.5765
 1647SOL    HW1 6586   0.483   3.726   2.163 -0.0254  0.3341 -0.7158
 1647SOL    HW2 6587   0.552   3.608   2.099 -0.6557 -0.3534 -0.1543
 1647SOL     MW 6588   0.503   3.679   2.092  0.0069  0.0765 -0.5402
 1648SOL     OW 6589   2.071   2.223   3.601  0.1034 -0.0686  0.0407
 1648SOL    HW1 6590   2.140   2.163   3.630  0.6580  0.6673  0.2655
 1648SOL    HW2 6591   2.001   2.212   3.665  1.2472  1.4172  1.6378
 1648SOL     MW 6592   2.071   2.214   3.613  0.3208  0.2158  0.2739
 1649SOL     OW 6593   0.579   0.876   2.781 -0.6191 -0.6046  0.1818
 1649SOL    HW1 6594   0.666   0.874   2.742 -0.6776  1.4421 -0.1601
 1649SOL    HW2 6595   0.595   0.873   2.876 -0.4162 -4.0959  0.1421
 1649SOL     MW 6596   0.592   0.876   2.788 -0.6006 -0.7895  0.1329
 1650SOL     OW 6597   3.491   2.270   0.640  0.2029  0.1532 -0.2454
 1650SOL    HW1 6598   3.523   2.212   0.572  2.0849  1.9779 -0.9922
 1650SOL    HW2 6599   3.569   2.301   0.685 -0.8707  0.6738  1.3725
 1650SOL     MW 6600   3.505   2.266   0.637  0.3064  0.4534 -0.1339
 1651SOL     OW 6601   0.458   0.598   0.033 -0.1127  0.4826  0.6698
 1651SOL    HW1 6602   0.366   0.576   0.051 -0.6127  0.7424 -1.3656
 1651SOL    HW2 6603   0.460   0.693   0.031  0.0946  0.4719  0.2599
 1651SOL     MW 6604   0.446   0.607   0.035 -0.1501  0.5145  0.3568
 1652SOL     OW 6605   1.243   3.102   4.930 -0.1683  0.4799 -0.0728
 1652SOL    HW1 6606   1.159   3.071   4.965  0.2141 -0.9888 -0.3781
 1652SOL    HW2 6607   1.229   3.108   4.836  0.4207 -1.1094 -0.3014
 1652SOL     MW 6608   1.231   3.098   4.923 -0.0439  0.0884 -0.1411
 1653SOL     OW 6609   1.159   4.307   4.930  0.1299 -0.3294 -0.1932
 1653SOL    HW1 6610   1.064   4.296   4.933 -0.0335  0.7011 -1.1842
 1653SOL    HW2 6611   1.194   4.219   4.946 -0.9895 -0.8081 -0.3123
 1653SOL     MW 6612   1.152   4.295   4.933 -0.0343 -0.2587 -0.3353
 1654SOL     OW 6613   4.531   5.350   3.089  0.2546  0.1493  0.5212
 1654SOL    HW1 6614   4.503   5.278   3.146  2.9862 -0.9718  0.6034
 1654SOL    HW2 6615   4.489   5.428   3.126 -0.5680 -1.0003  2.1260
 1654SOL     MW 6616   4.522   5.351   3.101  0.4990 -0.1414  0.7372
 1655SOL     OW 6617   4.382   1.259   2.697  0.4498 -0.1524 -0.4063
 1655SOL    HW1 6618   4.438   1.230   2.769 -0.7426  0.3470  0.7691
 1655SOL    HW2 6619   4.372   1.353   2.712 -0.7005 -0.2400 -0.5850
 1655SOL     MW 6620   4.388   1.267   2.708  0.1499 -0.0997 -0.2787
 1656SOL     OW 6621   1.626   3.607   0.720 -0.5554  0.9000 -0.1819
 1656SOL    HW1 6622   1.595   3.525   0.682 -0.1730  0.8574 -0.4118
 1656SOL    HW2 6623   1.658   3.582   0.807 -0.1512  0.7444 -0.3715
 1656SOL     MW 6624   1.626   3.593   0.726 -0.4547  0.8746 -0.2356
 1657SOL     OW 6625   4.743   3.162   3.065 -0.0819 -0.5550 -0.1639
 1657SOL    HW1 6626   4.713   3.214   2.990 -0.0437  0.0620  0.2490
 1657SOL    HW2 6627   4.812   3.107   3.029 -0.7666 -1.0143 -0.8228
 1657SOL     MW 6628   4.748   3.161   3.051 -0.1647 -0.5348 -0.1954
 1658SOL     OW 6629   4.050   4.802   5.218  0.0523  0.0634 -0.1091
 1658SOL    HW1 6630   4.137   4.842   5.225  0.4581 -0.8765  0.4119
 1658SOL    HW2 6631   4.040   4.782   5.125  0.1737  0.6282 -0.2496
 1658SOL     MW 6632   4.060   4.805   5.207  0.1198  0.0154 -0.0604
 1659SOL     OW 6633   1.247   0.908   5.233 -0.2648 -0.1200  0.3809
 1659SOL    HW1 6634   1.239   0.956   5.150  0.0751 -0.7750 -0.0437
 1659SOL    HW2 6635   1.301   0.833   5.211  0.7779  0.2833  1.4569
 1659SOL     MW 6636   1.253   0.905   5.219 -0.0878 -0.1522  0.4643
 1660SOL     OW 6637   2.908   3.773   5.087 -0.0804  0.6672  0.4314
 1660SOL    HW1 6638   2.835   3.717   5.061 -0.5699  1.1927  0.6544
 1660SOL    HW2 6639   2.932   3.820   5.008  0.2624  0.2386  0.2703
 1660SOL     MW 6640   2.902   3.772   5.074 -0.0992  0.6796  0.4393
 1661SOL     OW 6641   0.635   2.448   1.165  0.1139 -0.0562  0.7512
 1661SOL    HW1 6642   0.612   2.357   1.149 -0.2409  0.2484 -0.5853
 1661SOL    HW2 6643   0.637   2.456   1.261 -1.9831 -0.9442  0.9270
 1661SOL     MW 6644   0.633   2.438   1.175 -0.2000 -0.1309  0.6026
 1662SOL     OW 6645   0.871   3.698   0.608 -0.5351  0.4454 -0.0815
 1662SOL    HW1 6646   0.793   3.642   0.607  0.4812 -1.0717  0.6180
 1662SOL    HW2 6647   0.914   3.676   0.691  0.6752  1.1985 -0.4967
 1662SOL     MW 6648   0.866   3.688   0.619 -0.2501  0.3476 -0.0451
 1663SOL     OW 6649   4.854   3.666   2.280  0.1902  0.0758 -0.7717
 1663SOL    HW1 6650   4.851   3.639   2.188  0.3523 -0.6893 -0.5590
 1663SOL    HW2 6651   4.881   3.588   2.327 -0.2717  0.3564 -0.0237
 1663SOL     MW 6652   4.857   3.653   2.274  0.1518  0.0138 -0.6487
 1664SOL     OW 6653   3.073   3.746   2.008  0.2152  0.3370 -0.3311
 1664SOL    HW1 6654   3.105   3.808   2.073  0.2215  1.0068 -0.9675
 1664SOL    HW2 6655   3.111   3.662   2.035  1.4724  0.8845 -0.3401
 1664SOL     MW 6656   3.082   3.743   2.020  0.3769  0.4928 -0.4137
 1665SOL     OW 6657   1.371   2.865   5.006 -0.2749  0.2974  0.0671
 1665SOL    HW1 6658   1.343   2.952   4.977 -0.6288  0.2860  0.3649
 1665SOL    HW2 6659   1.458   2.879   5.043 -0.5753  0.6426  0.6711
 1665SOL     MW 6660   1.379   2.878   5.007 -0.3587  0.3401  0.1826
 1666SOL     OW 6661   3.844   4.848   2.787  0.0572  0.0667  0.1019
 1666SOL    HW1 6662   3.904   4.851   2.861  0.1956 -0.4177  0.0138
 1666SOL    HW2 6663   3.816   4.756   2.783  2.0264 -0.5241 -2.0234
 1666SOL     MW 6664   3.848   4.837   2.796  0.3270 -0.0710 -0.1814
 1667SOL     OW 6665   2.048   1.042   4.614 -0.2352  0.4039  0.8071
 1667SOL    HW1 6666   1.956   1.021   4.631 -0.1165 -0.8722 -0.0043
 1667SOL    HW2 6667   2.057   1.032   4.519  0.5195  1.5104  0.7427
 1667SOL     MW 6668   2.037   1.038   4.604 -0.1233  0.3822  0.6950
 1668SOL     OW 6669   1.295   0.435   4.249  0.8356 -0.4009 -0.2182
 1668SOL    HW1 6670   1.343   0.492   4.310  0.2688  0.0481 -0.1784
 1668SOL    HW2 6671   1.335   0.349   4.260  1.2097 -0.1718  0.2716
 1668SOL     MW 6672   1.307   0.432   4.258  0.8110 -0.3141 -0.1504
 1669SOL     OW 6673   1.170   3.743   5.407 -0.3040  0.4106  0.1412
 1669SOL    HW1 6674   1.223   3.762   5.485  0.4956  0.5277 -0.4214
 1669SOL    HW2 6675   1.106   3.814   5.406 -0.2422  0.4837  0.6231
 1669SOL     MW 6676   1.169   3.755   5.417 -0.1937  0.4349  0.1309
 1670SOL     OW 6677   5.277   2.469   5.194  0.3366  0.3378 -0.3787
 1670SOL    HW1 6678   5.239   2.534   5.135  0.5623  1.1646  0.3690
 1670SOL    HW2 6679   5.341   2.517   5.246  1.2974 -0.7132 -0.5398
 1670SOL     MW 6680   5.280   2.483   5.193  0.4885  0.3091 -0.3036
 1671SOL     OW 6681   1.012   5.064   1.527 -0.0358  0.1692 -0.1788
 1671SOL    HW1 6682   1.082   5.114   1.486  0.2743  0.2116  0.3889
 1671SOL    HW2 6683   0.943   5.059   1.461  0.7405 -0.3955 -0.9671
 1671SOL     MW 6684   1.012   5.070   1.514  0.1033  0.1023 -0.2070
 1672SOL     OW 6685   4.416   3.369   4.364 -0.0021  0.8097  0.5486
 1672SOL    HW1 6686   4.445   3.278   4.359  0.5848  0.9231  1.7294
 1672SOL    HW2 6687   4.388   3.381   4.454  0.7939  2.0504  0.6602
 1672SOL     MW 6688   4.416   3.359   4.375  0.1750  0.9831  0.7141
 1673SOL     OW 6689   0.243   1.669   4.145  0.0254 -0.1674 -0.0034
 1673SOL    HW1 6690   0.323   1.676   4.093 -0.6627 -1.1194 -1.2274
 1673SOL    HW2 6691   0.211   1.581   4.129 -1.8501  0.5364 -0.4168
 1673SOL     MW 6692   0.249   1.659   4.136 -0.3028 -0.1992 -0.2130
 1674SOL     OW 6693   4.390   4.875   3.610 -0.0147  0.1447 -0.0757
 1674SOL    HW1 6694   4.316   4.929   3.635  1.0701  1.4805  0.3897
 1674SOL    HW2 6695   4.448   4.934   3.562  0.9130 -0.7673 -0.1305
 1674SOL     MW 6696   4.388   4.889   3.607  0.2429  0.1989 -0.0231
 1675SOL     OW 6697   1.962   0.141   4.084  0.5441 -0.0385  0.1394
 1675SOL    HW1 6698   1.972   0.233   4.059 -0.5341  0.4358  1.3394
 1675SOL    HW2 6699   1.868   0.130   4.097  0.3829 -1.8909 -2.0242
 1675SOL     MW 6700   1.951   0.152   4.082  0.3854 -0.2149  0.0161
 1676SOL     OW 6701   4.515   3.566   4.023 -0.0739 -0.2239 -0.2226
 1676SOL    HW1 6702   4.560   3.482   4.011 -1.0519 -0.5269 -2.1387
 1676SOL    HW2 6703   4.510   3.577   4.118  2.1842 -1.1518  0.0633
 1676SOL     MW 6704   4.520   3.557   4.034  0.0900 -0.3815 -0.4313
 1677SOL     OW 6705   3.044   1.710   0.328  0.3660  0.1362 -0.0634
 1677SOL    HW1 6706   2.978   1.779   0.340  2.0096  1.7858  0.0284
 1677SOL    HW2 6707   3.096   1.713   0.408 -0.1742 -2.0234  0.4132
 1677SOL     MW 6708   3.042   1.719   0.340  0.5073  0.0709  0.0094
 1678SOL     OW 6709   5.107   0.865   5.243  0.1375 -0.0055  0.0949
 1678SOL    HW1 6710   5.090   0.789   5.187  1.5631 -0.3515  0.0735
 1678SOL    HW2 6711   5.021   0.900   5.264 -0.4488  0.0084 -2.1368
 1678SOL     MW 6712   5.094   0.860   5.239  0.2450 -0.0480 -0.1935
 1679SOL     OW 6713   0.882   5.093   3.399 -0.2972 -0.0602 -0.0574
 1679SOL    HW1 6714   0.795   5.070   3.366 -0.0398 -0.2982 -0.5770
 1679SOL    HW2 6715   0.866   5.130   3.485 -1.0297  1.1203 -0.6892
 1679SOL     MW 6716   0.869   5.094   3.406 -0.3580  0.0604 -0.2048
 1680SOL     OW 6717   5.339   0.830   2.458  0.7243 -0.2260 -0.1178
 1680SOL    HW1 6718   5.350   0.894   2.528  0.1299  0.5072 -0.6806
 1680SOL    HW2 6719   5.247   0.838   2.433  1.1015  0.0574 -1.4804
 1680SOL     MW 6720   5.329   0.839   2.464  0.6965 -0.0959 -0.3643
 1681SOL     OW 6721   0.907   1.643   0.726  0.0156  0.3315  0.2668
 1681SOL    HW1 6722   0.878   1.552   0.727 -1.3670  0.7464 -0.1483
 1681SOL    HW2 6723   0.856   1.684   0.656  1.4885  1.1623 -0.3674
 1681SOL     MW 6724   0.897   1.637   0.717  0.0272  0.4910  0.1325
 1682SOL     OW 6725   4.442   0.048   4.088  0.4242 -0.4131 -0.0362
 1682SOL    HW1 6726   4.357   0.054   4.044  0.8768  2.1514 -0.6746
 1682SOL    HW2 6727   4.420   0.025   4.179 -0.6141 -4.0941 -1.0455
 1682SOL     MW 6728   4.428   0.046   4.094  0.3492 -0.5560 -0.2471
 1683SOL     OW 6729   5.366   0.345   2.791  0.0802 -0.0861  0.0560
 1683SOL    HW1 6730   5.279   0.319   2.762  0.1929 -0.0919 -0.2759
 1683SOL    HW2 6731   5.390   0.419   2.735 -0.7222  1.5445  1.7518
 1683SOL     MW 6732   5.358   0.351   2.780 -0.0081  0.1219  0.2306
 1684SOL     OW 6733   4.195   5.455   1.180  0.4942  0.0332 -0.2853
 1684SOL    HW1 6734   4.203   5.386   1.245 -2.5253 -1.8353 -1.6630
 1684SOL    HW2 6735   4.263   5.437   1.116 -0.0808 -1.5582 -0.4771
 1684SOL     MW 6736   4.205   5.444   1.180  0.0340 -0.4097 -0.4862
 1685SOL     OW 6737   3.646   0.937   4.636  0.6745  0.1583 -0.1548
 1685SOL    HW1 6738   3.615   0.848   4.654 -0.1631  0.6633  1.0495
 1685SOL    HW2 6739   3.616   0.956   4.547  0.9940 -0.8071 -0.4796
 1685SOL     MW 6740   3.638   0.928   4.627  0.6081  0.0993 -0.0422
 1686SOL     OW 6741   3.621   1.424   3.158 -0.5597 -0.1598  0.2632
 1686SOL    HW1 6742   3.677   1.350   3.183 -2.2925 -1.9468 -0.8603
 1686SOL    HW2 6743   3.576   1.448   3.239  0.7413  0.3773  0.8619
 1686SOL     MW 6744   3.623   1.417   3.171 -0.6150 -0.3198  0.1960
 1687SOL     OW 6745   0.975   2.429   4.167 -0.5639  0.8431  0.0243
 1687SOL    HW1 6746   0.900   2.380   4.134  0.4015  0.1963 -1.2768
 1687SOL    HW2 6747   0.959   2.435   4.262 -0.7392 -1.9600  0.2577
 1687SOL     MW 6748   0.963   2.424   4.175 -0.4628  0.4015 -0.1124
 1688SOL     OW 6749   3.350   1.754   1.817  0.0986  0.2621  0.4213
 1688SOL    HW1 6750   3.315   1.696   1.884  1.7664 -1.3882 -0.0396
 1688SOL    HW2 6751   3.414   1.700   1.769  0.3664  1.9394 -1.2526
 1688SOL     MW 6752   3.354   1.739   1.819  0.3464  0.2655  0.1480
 1689SOL     OW 6753   1.346   2.407   4.538  0.2298 -0.5103  0.1988
 1689SOL    HW1 6754   1.362   2.338   4.474 -0.7745 -1.2190  0.6755
 1689SOL    HW2 6755   1.420   2.400   4.599 -0.2681 -1.7155  0.6931
 1689SOL     MW 6756   1.358   2.397   4.538  0.0375 -0.7553  0.3231
 1690SOL     OW 6757   1.540   3.422   0.147  0.6064  0.2236 -0.0122
 1690SOL    HW1 6758   1.573   3.438   0.059 -1.5567 -2.4995 -1.5024
 1690SOL    HW2 6759   1.464   3.480   0.156  1.2086  0.9751  0.3776
 1690SOL     MW 6760   1.535   3.431   0.137  0.4066 -0.0288 -0.1530
 1691SOL     OW 6761   3.750   2.299   0.730 -0.6623  0.1586  0.1513
 1691SOL    HW1 6762   3.742   2.239   0.805 -0.3066 -0.0947 -0.0130
 1691SOL    HW2 6763   3.820   2.262   0.677 -0.8327  0.4050 -0.2493
 1691SOL     MW 6764   3.758   2.287   0.733 -0.6386  0.1578  0.0790
 1692SOL     OW 6765   1.790   0.118   1.389  0.0107  0.2445  0.3901
 1692SOL    HW1 6766   1.812   0.124   1.296  2.0833  1.3401  0.8821
 1692SOL    HW2 6767   1.694   0.124   1.392 -0.1409 -0.4420 -1.6830
 1692SOL     MW 6768   1.780   0.120   1.378  0.2566  0.2969  0.1877
 1693SOL     OW 6769   3.893   2.542   1.077 -0.0688  0.0969  0.1920
 1693SOL    HW1 6770   3.907   2.608   1.145  0.0400  0.5157 -0.2303
 1693SOL    HW2 6771   3.805   2.560   1.044  0.3297  0.6702 -0.6001
 1693SOL     MW 6772   3.884   2.553   1.082 -0.0039  0.2239  0.0365
 1694SOL     OW 6773   0.817   0.905   3.213 -0.0094 -0.0639  0.3954
 1694SOL    HW1 6774   0.817   0.940   3.303  0.2752 -0.7022  0.6511
 1694SOL    HW2 6775   0.910   0.892   3.193 -0.1116 -0.7873  0.3565
 1694SOL     MW 6776   0.829   0.908   3.222  0.0140 -0.2382  0.4232
 1695SOL     OW 6777   1.974   4.544   2.381  0.1423 -0.5863  0.0854
 1695SOL    HW1 6778   1.909   4.575   2.443  0.0890  2.0946 -1.2003
 1695SOL    HW2 6779   2.055   4.588   2.407  0.9583 -2.0914  0.2504
 1695SOL     MW 6780   1.976   4.553   2.393  0.2399 -0.4358 -0.0581
 1696SOL     OW 6781   2.343   0.789   4.033  0.5767  0.0395  0.1371
 1696SOL    HW1 6782   2.422   0.737   4.045 -0.1875 -0.5050  4.2211
 1696SOL    HW2 6783   2.372   0.879   4.046  0.8753  0.0763 -0.7258
 1696SOL     MW 6784   2.357   0.794   4.037  0.5171 -0.0255  0.5495
 1697SOL     OW 6785   4.716   1.031   3.668  0.1316 -0.8576 -0.2458
 1697SOL    HW1 6786   4.712   1.100   3.734 -1.0815  0.6754 -1.8543
 1697SOL    HW2 6787   4.807   1.031   3.638  0.0754  0.2239 -0.4284
 1697SOL     MW 6788   4.727   1.040   3.673 -0.0309 -0.5229 -0.4751
 1698SOL     OW 6789   1.989   5.330   4.474 -0.3995 -0.1373 -0.9404
 1698SOL    HW1 6790   1.962   5.350   4.563 -1.0226 -0.4077 -1.0681
 1698SOL    HW2 6791   2.010   5.415   4.435  0.2724 -0.0527 -0.4179
 1698SOL     MW 6792   1.988   5.343   4.480 -0.3933 -0.1611 -0.8898
 1699SOL     OW 6793   4.010   5.176   2.056 -1.0425  0.6781  0.6309
 1699SOL    HW1 6794   4.100   5.166   2.087 -0.8746 -1.3492 -0.4024
 1699SOL    HW2 6795   3.961   5.206   2.133 -0.1542 -1.6997  2.2100
 1699SOL     MW 6796   4.015   5.179   2.070 -0.9073  0.1142  0.7007
 1700SOL     OW 6797   2.371   1.670   3.797 -0.3002  0.1742  0.4831
 1700SOL    HW1 6798   2.457   1.628   3.797 -1.0115 -1.7083 -2.7456
 1700SOL    HW2 6799   2.376   1.736   3.727 -1.2275  0.6169  0.8128
 1700SOL     MW 6800   2.382   1.673   3.788 -0.5100 -0.0101  0.1120
 1701SOL     OW 6801   3.316   1.568   0.300 -0.4661 -0.0561 -0.2675
 1701SOL    HW1 6802   3.306   1.621   0.379 -0.2220  0.3347 -0.5021
 1701SOL    HW2 6803   3.285   1.624   0.229  0.5883  0.0817 -0.6265
 1701SOL     MW 6804   3.310   1.582   0.301 -0.2999  0.0116 -0.3435
 1702SOL     OW 6805   3.148   3.741   0.225  0.0886 -0.0146 -0.0389
 1702SOL    HW1 6806   3.134   3.695   0.142  1.1748 -1.1985  0.4024
 1702SOL    HW2 6807   3.199   3.680   0.278  0.0195  1.0045  1.2505
 1702SOL     MW 6808   3.153   3.727   0.221  0.2188 -0.0357  0.1826
 1703SOL     OW 6809   2.676   0.321   2.145 -0.1361  0.1660  0.1255
 1703SOL    HW1 6810   2.750   0.337   2.086  0.8433  0.8608  1.4997
 1703SOL    HW2 6811   2.694   0.235   2.183  1.2806  1.3117  2.2391
 1703SOL     MW 6812   2.688   0.312   2.142  0.1706  0.4016  0.5720
 1704SOL     OW 6813   3.156   0.219   0.831 -0.5899  0.5296 -0.2085
 1704SOL    HW1 6814   3.199   0.294   0.872 -0.5845 -0.0277  0.8539
 1704SOL    HW2 6815   3.064   0.246   0.823 -0.7726  0.3404  1.0072
 1704SOL     MW 6816   3.150   0.232   0.835 -0.6126  0.4341  0.0832
 1705SOL     OW 6817   4.132   0.062   2.480  0.1254  0.0694  0.4000
 1705SOL    HW1 6818   4.052   0.098   2.519  0.5577  2.6485 -0.8735
 1705SOL    HW2 6819   4.203   0.115   2.517  0.8370  0.3991 -1.3200
 1705SOL     MW 6820   4.131   0.074   2.490  0.2718  0.4418  0.0168
 1706SOL     OW 6821   0.336   1.037   1.708 -0.2474  0.3174 -0.0396
 1706SOL    HW1 6822   0.283   0.986   1.769  0.4701  0.6623  0.8880
 1706SOL    HW2 6823   0.382   0.972   1.655 -2.1694 -0.0163 -1.4419
 1706SOL     MW 6824   0.335   1.022   1.709 -0.4016  0.3188 -0.1004
 1707SOL     OW 6825   2.330   0.100   2.202  0.2786 -0.0865  0.4908
 1707SOL    HW1 6826   2.279   0.151   2.264  0.2011  0.2262  0.1689
 1707SOL    HW2 6827   2.342   0.015   2.245 -0.9834 -0.3630  0.3412
 1707SOL     MW 6828   2.325   0.096   2.216  0.1071 -0.0819  0.4304
 1708SOL     OW 6829   3.417   4.974   1.821  0.0931 -0.2766 -0.1850
 1708SOL    HW1 6830   3.362   4.933   1.753  0.0602 -1.2432  0.4125
 1708SOL    HW2 6831   3.357   4.991   1.893  0.2907  0.0353 -0.0917
 1708SOL     MW 6832   3.402   4.971   1.821  0.1142 -0.3604 -0.0966
 1709SOL     OW 6833   4.616   4.446   3.080 -0.1548  0.8791 -0.0639
 1709SOL    HW1 6834   4.699   4.489   3.059  0.5970  0.0974  1.1763
 1709SOL    HW2 6835   4.549   4.507   3.049  0.8582  1.2666 -1.6187
 1709SOL     MW 6836   4.618   4.459   3.073  0.0711  0.8287 -0.1041
 1710SOL     OW 6837   2.304   1.373   2.986  0.2855 -0.2435  0.3002
 1710SOL    HW1 6838   2.367   1.437   2.951 -1.5168  1.1424 -0.6032
 1710SOL    HW2 6839   2.288   1.402   3.076 -0.1196  0.2939  0.0646
 1710SOL     MW 6840   2.310   1.385   2.993  0.0029  0.0027  0.1544
 1711SOL     OW 6841   2.218   0.607   0.854  0.2504 -0.3633 -0.4973
 1711SOL    HW1 6842   2.174   0.525   0.830 -0.7576 -0.4136  1.3080
 1711SOL    HW2 6843   2.148   0.672   0.859  0.4830 -0.1907  1.3725
 1711SOL     MW 6844   2.203   0.605   0.852  0.1512 -0.3476 -0.0268
 1712SOL     OW 6845   1.996   5.075   5.284  0.5488 -0.1101 -0.4720
 1712SOL    HW1 6846   1.975   5.161   5.319  0.9494 -0.9748  2.1030
 1712SOL    HW2 6847   1.914   5.027   5.287  0.8323 -0.5608  0.5122
 1712SOL     MW 6848   1.983   5.080   5.289  0.6364 -0.2785 -0.0163
 1713SOL     OW 6849   4.614   4.816   5.182  1.0494  0.0273  0.1838
 1713SOL    HW1 6850   4.614   4.818   5.087  1.4749  3.1491  0.1391
 1713SOL    HW2 6851   4.707   4.811   5.206  1.0948  1.3362  0.3595
 1713SOL     MW 6852   4.626   4.815   5.173  1.1097  0.5945  0.2006
 1714SOL     OW 6853   5.058   1.049   2.089  0.6015  0.0034  0.0966
 1714SOL    HW1 6854   5.150   1.074   2.100  0.2929  0.3460  2.4880
 1714SOL    HW2 6855   5.009   1.127   2.115 -0.4374  0.2792 -2.4065
 1714SOL     MW 6856   5.063   1.062   2.094  0.4290  0.0826  0.0823
 1715SOL     OW 6857   0.059   0.312   3.563  0.0159  0.3465  0.2947
 1715SOL    HW1 6858   0.136   0.295   3.508 -0.8565 -0.0492 -0.8443
 1715SOL    HW2 6859  -0.005   0.247   3.534 -0.7330  0.6255  1.2791
 1715SOL     MW 6860   0.061   0.301   3.552 -0.1917  0.3315  0.2749
 1716SOL     OW 6861   4.210   2.136   4.589 -0.0598  0.3739 -0.5334
 1716SOL    HW1 6862   4.193   2.083   4.667  0.9303 -2.3972 -2.0242
 1716SOL    HW2 6863   4.216   2.226   4.621 -0.9496 -0.4860  2.3496
 1716SOL     MW 6864   4.209   2.140   4.603 -0.0469 -0.0909 -0.3552
 1717SOL     OW 6865   4.384   1.899   3.699 -0.0368  0.0132  0.8244
 1717SOL    HW1 6866   4.338   1.981   3.683  1.2162  0.6515  0.3668
 1717SOL    HW2 6867   4.476   1.924   3.704  0.1807 -1.0036  3.1574
 1717SOL     MW 6868   4.390   1.913   3.698  0.1515 -0.0353  1.0645
 1718SOL     OW 6869   1.024   1.792   3.421 -0.2925 -0.2427 -0.0354
 1718SOL    HW1 6870   1.031   1.714   3.476  3.6109 -0.5052 -0.6238
 1718SOL    HW2 6871   1.055   1.863   3.477  0.0858  0.1436 -0.7207
 1718SOL     MW 6872   1.029   1.791   3.435  0.2556 -0.2269 -0.1984
 1719SOL     OW 6873   0.146   4.170   4.707 -0.2824  0.1574 -0.1246
 1719SOL    HW1 6874   0.222   4.173   4.649 -0.2146  1.8944 -0.0007
 1719SOL    HW2 6875   0.074   4.207   4.655 -0.3867  1.0487  0.6170
 1719SOL     MW 6876   0.146   4.175   4.693 -0.2871  0.4938 -0.0138
 1720SOL     OW 6877   3.839   2.995   0.614  0.8659  0.0475  0.1773
 1720SOL    HW1 6878   3.920   3.032   0.580  0.3165 -0.3215 -1.6683
 1720SOL    HW2 6879   3.819   2.923   0.554 -1.1462  0.5225  0.1954
 1720SOL     MW 6880   3.847   2.990   0.602  0.5380  0.0611 -0.0567
 1721SOL     OW 6881   5.259   0.683   3.386  0.2611  0.1147 -0.1826
 1721SOL    HW1 6882   5.329   0.656   3.446  0.6166  0.6706 -0.3464
 1721SOL    HW2 6883   5.212   0.601   3.367 -0.7454  0.1101  1.9524
 1721SOL     MW 6884   5.262   0.669   3.391  0.1777  0.1853  0.0698
 1722SOL     OW 6885   0.562   5.219   0.662 -0.7040 -0.1108 -0.0673
 1722SOL    HW1 6886   0.576   5.247   0.572 -0.7947 -0.2892 -0.1380
 1722SOL    HW2 6887   0.626   5.269   0.714  1.6282 -2.3402 -0.5929
 1722SOL     MW 6888   0.572   5.229   0.657 -0.4170 -0.4190 -0.1437
 1723SOL     OW 6889   1.214   1.107   4.169 -0.1329  0.2888 -0.4957
 1723SOL    HW1 6890   1.119   1.104   4.167 -0.1281 -0.3233 -0.2276
 1723SOL    HW2 6891   1.241   1.015   4.168  0.4319  0.4368  0.0096
 1723SOL     MW 6892   1.205   1.095   4.169 -0.0600  0.2294 -0.3967
 1724SOL     OW 6893   3.583   1.720   1.238 -0.0210 -0.0487 -0.4671
 1724SOL    HW1 6894   3.652   1.785   1.228 -2.0834  2.1787 -1.0487
 1724SOL    HW2 6895   3.567   1.688   1.149 -0.3331  0.1121 -0.4709
 1724SOL     MW 6896   3.590   1.724   1.225 -0.3249  0.2570 -0.5421
 1725SOL     OW 6897   4.211   3.314   1.614 -0.5512  0.2255  0.2482
 1725SOL    HW1 6898   4.306   3.305   1.607 -0.5925  0.5755 -0.8709
 1725SOL    HW2 6899   4.190   3.276   1.700  0.4045 -1.2558 -0.1354
 1725SOL     MW 6900   4.220   3.308   1.624 -0.4341  0.0807  0.0558
 1726SOL     OW 6901   2.817   3.852   4.263 -0.1614 -0.1152  0.6097
 1726SOL    HW1 6902   2.807   3.940   4.225 -1.3339 -0.5174 -0.0637
 1726SOL    HW2 6903   2.728   3.823   4.279 -0.1233 -2.8349 -3.0279
 1726SOL     MW 6904   2.805   3.860   4.260 -0.3066 -0.5149  0.0579
 1727SOL     OW 6905   3.419   0.211   3.896  0.4477  0.0916  0.4475
 1727SOL    HW1 6906   3.420   0.116   3.908 -1.0285  0.0314  0.2986
 1727SOL    HW2 6907   3.467   0.225   3.814  0.7491 -0.5239  0.5123
 1727SOL     MW 6908   3.425   0.200   3.887  0.2973  0.0051  0.4367
 1728SOL     OW 6909   2.348   0.380   1.769 -0.5692  0.2983 -0.3179
 1728SOL    HW1 6910   2.266   0.423   1.793 -1.7229 -2.2796  0.6536
 1728SOL    HW2 6911   2.353   0.303   1.825  0.6899 -1.6071 -2.8349
 1728SOL     MW 6912   2.338   0.376   1.779 -0.5557 -0.2756 -0.5158
 1729SOL     OW 6913   3.640   0.685   0.125 -0.2333  0.7237  0.0073
 1729SOL    HW1 6914   3.559   0.634   0.132  0.3072 -0.3274 -0.9933
 1729SOL    HW2 6915   3.666   0.702   0.215 -0.8085 -0.1924  0.3569
 1729SOL     MW 6916   3.633   0.680   0.137 -0.2378  0.4719 -0.0760
 1730SOL     OW 6917   5.068   1.216   4.927 -0.1353 -0.5309 -0.8032
 1730SOL    HW1 6918   5.055   1.253   5.014 -0.6900 -0.0957 -1.0615
 1730SOL    HW2 6919   5.112   1.133   4.942 -0.4861 -0.5927 -0.0903
 1730SOL     MW 6920   5.072   1.210   4.940 -0.2512 -0.4831 -0.7450
 1731SOL     OW 6921   2.897   0.912   4.719 -0.7578  0.0049  0.0977
 1731SOL    HW1 6922   2.807   0.945   4.725 -1.1280 -0.5551 -1.8507
 1731SOL    HW2 6923   2.926   0.935   4.631  0.4929 -1.0946  0.1811
 1731SOL     MW 6924   2.889   0.919   4.709 -0.6451 -0.2075 -0.1411
 1732SOL     OW 6925   2.722   1.328   4.885 -0.2822 -0.2600  0.4321
 1732SOL    HW1 6926   2.805   1.284   4.905  0.1750  0.6441  0.5845
 1732SOL    HW2 6927   2.714   1.394   4.953 -0.1813  0.9169 -0.6670
 1732SOL     MW 6928   2.732   1.331   4.896 -0.2107  0.0064  0.3109
 1733SOL     OW 6929   2.875   4.066   5.049 -0.1046 -0.2516  0.2668
 1733SOL    HW1 6930   2.838   4.148   5.083 -0.1655  0.0470 -0.4906
 1733SOL    HW2 6931   2.804   4.028   4.997  0.5306  0.1645 -0.9408
 1733SOL     MW 6932   2.861   4.072   5.047 -0.0311 -0.1601  0.0152
 1734SOL     OW 6933   1.376   3.286   2.287 -0.0860  0.5298 -0.2401
 1734SOL    HW1 6934   1.406   3.256   2.202 -0.0106 -0.7113  0.2042
 1734SOL    HW2 6935   1.416   3.372   2.298  3.0394 -0.8333  0.1315
 1734SOL     MW 6936   1.385   3.293   2.278  0.3237  0.1964 -0.1357
 1735SOL     OW 6937   3.739   1.686   2.200 -0.2875 -0.7045  0.0818
 1735SOL    HW1 6938   3.765   1.594   2.210  1.7739 -0.0455  1.3364
 1735SOL    HW2 6939   3.745   1.723   2.288 -0.5361  0.7688 -0.4902
 1735SOL     MW 6940   3.743   1.679   2.212 -0.0554 -0.4315  0.1692
 1736SOL     OW 6941   1.275   0.869   1.695 -0.5556 -1.0992  0.3252
 1736SOL    HW1 6942   1.328   0.903   1.623 -1.9147  0.7515  0.1394
 1736SOL    HW2 6943   1.339   0.839   1.759  0.7497  0.8163  0.0069
 1736SOL     MW 6944   1.290   0.869   1.694 -0.5625 -0.6171  0.2607
 1737SOL     OW 6945   2.676   2.275   0.939 -0.5638  0.0228  0.1955
 1737SOL    HW1 6946   2.638   2.305   1.022  1.2028 -1.6915  1.7232
 1737SOL    HW2 6947   2.650   2.183   0.933 -0.1218 -0.0469 -0.8205
 1737SOL     MW 6948   2.668   2.267   0.949 -0.2811 -0.2056  0.2610
 1738SOL     OW 6949   0.953   3.985   2.995 -0.9995  0.1959  0.1750
 1738SOL    HW1 6950   0.987   4.065   2.955 -0.7030 -0.2763 -0.5478
 1738SOL    HW2 6951   0.870   4.011   3.035  0.3776  1.5010  2.4099
 1738SOL     MW 6952   0.947   3.998   2.995 -0.7852  0.3025  0.3686
 1739SOL     OW 6953   1.979   4.226   3.410 -0.5370  0.4681 -0.1151
 1739SOL    HW1 6954   1.989   4.143   3.364  0.1472  0.9515 -0.8643
 1739SOL    HW2 6955   1.908   4.210   3.473  0.8040 -1.2645  1.0822
 1739SOL     MW 6956   1.971   4.213   3.412 -0.2778  0.3082 -0.0578
 1740SOL     OW 6957   3.102   1.843   4.760  0.5512  0.2283 -0.0830
 1740SOL    HW1 6958   3.100   1.748   4.770 -0.1738  0.1556 -0.8210
 1740SOL    HW2 6959   3.169   1.858   4.693  1.6791  0.3558  1.0271
 1740SOL     MW 6960   3.111   1.833   4.753  0.6028  0.2353 -0.0354
 1741SOL     OW 6961   2.283   3.261   1.409  0.4796 -0.4521 -0.0520
 1741SOL    HW1 6962   2.322   3.308   1.483  0.8973  0.3215 -0.7419
 1741SOL    HW2 6963   2.212   3.209   1.448  0.9281 -0.3491  0.9367
 1741SOL     MW 6964   2.279   3.260   1.424  0.5905 -0.3399 -0.0137
 1742SOL     OW 6965   3.991   3.466   2.654  0.1810  0.1086  0.2237
 1742SOL    HW1 6966   3.947   3.478   2.570 -1.2364 -2.2789  0.5537
 1742SOL    HW2 6967   4.084   3.465   2.631 -0.2088 -2.1740 -1.6454
 1742SOL     MW 6968   3.998   3.468   2.640 -0.0503 -0.4892  0.0267
 1743SOL     OW 6969   3.527   4.531   1.346 -0.1764 -0.0721  0.5789
 1743SOL    HW1 6970   3.594   4.598   1.360  0.3567 -0.5895  0.5256
 1743SOL    HW2 6971   3.484   4.556   1.264 -0.3381  0.4989  0.8374
 1743SOL     MW 6972   3.530   4.543   1.337 -0.1288 -0.0652  0.6051
 1744SOL     OW 6973   4.574   0.410   2.138 -0.9495  0.1206  0.0351
 1744SOL    HW1 6974   4.600   0.368   2.057 -0.1463  0.6825 -0.0129
 1744SOL    HW2 6975   4.502   0.357   2.172  0.9044 -2.1124  0.6807
 1744SOL     MW 6976   4.568   0.398   2.132 -0.6093 -0.0933  0.1116
 1745SOL     OW 6977   5.051   1.926   3.825  0.4404 -0.3982  0.1633
 1745SOL    HW1 6978   5.042   1.859   3.893  1.5024  0.3181  1.0382
 1745SOL    HW2 6979   5.045   1.877   3.743  0.2901 -1.4385  0.7698
 1745SOL     MW 6980   5.049   1.911   3.824  0.5571 -0.4397  0.3530
 1746SOL     OW 6981   2.197   1.453   3.837 -0.2244 -0.1176 -0.6059
 1746SOL    HW1 6982   2.246   1.535   3.826 -1.3507  0.3693 -2.3911
 1746SOL    HW2 6983   2.265   1.388   3.858  1.0806  0.7444 -1.9010
 1746SOL     MW 6984   2.212   1.455   3.838 -0.2015  0.0550 -1.0002
 1747SOL     OW 6985   0.290   0.115   2.802 -0.1761  0.2113 -0.6786
 1747SOL    HW1 6986   0.373   0.163   2.796 -0.0484 -0.1254 -1.7534
 1747SOL    HW2 6987   0.296   0.049   2.733 -0.6974 -0.8205  0.2352
 1747SOL     MW 6988   0.302   0.112   2.793 -0.2265  0.0361 -0.6992
 1748SOL     OW 6989   4.090   0.609   3.228 -0.1951 -0.5004 -0.1480
 1748SOL    HW1 6990   4.039   0.687   3.252 -0.0312 -0.2597 -0.5685
 1748SOL    HW2 6991   4.132   0.582   3.310 -0.1979 -0.1042 -0.0100
 1748SOL     MW 6992   4.089   0.616   3.241 -0.1745 -0.4189 -0.1842
 1749SOL     OW 6993   4.289   4.010   2.486 -0.6107 -0.2107 -0.1070
 1749SOL    HW1 6994   4.334   3.971   2.411  1.1090 -0.3508  0.9442
 1749SOL    HW2 6995   4.206   3.963   2.492 -0.5787 -0.5043 -1.6305
 1749SOL     MW 6996   4.284   3.999   2.477 -0.3865 -0.2662 -0.1674
 1750SOL     OW 6997   4.864   0.451   0.233  0.2795  0.1820  0.3813
 1750SOL    HW1 6998   4.809   0.482   0.305 -0.4458 -0.4089  0.1014
 1750SOL    HW2 6999   4.939   0.409   0.276 -0.6100 -1.0129  0.8455
 1750SOL     MW 7000   4.867   0.449   0.248  0.0728 -0.0466  0.4049
 1751SOL     OW 7001   0.551   5.187   4.355  0.0977 -0.0925 -0.1115
 1751SOL    HW1 7002   0.506   5.170   4.272  0.1219 -0.2693 -0.0893
 1751SOL    HW2 7003   0.507   5.129   4.417 -1.3458  1.5354  0.4617
 1751SOL     MW 7004   0.539   5.177   4.352 -0.0840  0.0933 -0.0353
 1752SOL     OW 7005   3.446   4.994   2.922 -0.1046 -0.6344  0.0961
 1752SOL    HW1 7006   3.479   4.987   3.011 -0.1735  0.3278  0.2056
 1752SOL    HW2 7007   3.399   4.912   2.907 -0.7814 -0.4636  1.2187
 1752SOL     MW 7008   3.444   4.983   2.931 -0.2000 -0.4894  0.2538
 1753SOL     OW 7009   2.575   0.675   2.384 -0.0941  0.2020 -0.0823
 1753SOL    HW1 7010   2.601   0.671   2.292  0.9404  0.2916  0.1872
 1753SOL    HW2 7011   2.604   0.591   2.421  0.6914  0.6827  0.4363
 1753SOL     MW 7012   2.582   0.664   2.377  0.1389  0.2750  0.0186
 1754SOL     OW 7013   5.326   1.581   3.037 -0.2010  0.2692  0.3837
 1754SOL    HW1 7014   5.297   1.493   3.060 -0.3793  0.6446  1.6844
 1754SOL    HW2 7015   5.339   1.579   2.942  0.8364 -1.4531  0.5319
 1754SOL     MW 7016   5.324   1.570   3.027 -0.0910  0.0968  0.5692
 1755SOL     OW 7017   0.242   3.969   3.087 -0.4258 -0.3502 -0.0828
 1755SOL    HW1 7018   0.321   3.933   3.045  0.3693  2.2169 -0.9836
 1755SOL    HW2 7019   0.273   4.002   3.171 -0.7262 -0.0978 -0.0699
 1755SOL     MW 7020   0.256   3.969   3.092 -0.3624  0.0108 -0.1965
 1756SOL     OW 7021   2.126   0.108   3.132  0.3196 -0.2261  0.3039
 1756SOL    HW1 7022   2.132   0.025   3.085 -0.2315 -0.1885  0.1660
 1756SOL    HW2 7023   2.179   0.169   3.080 -1.1309  0.0840 -0.8778
 1756SOL     MW 7024   2.134   0.105   3.119  0.0633 -0.1816  0.1350
 1757SOL     OW 7025   4.533   3.071   1.920  0.1198  0.5104 -0.0866
 1757SOL    HW1 7026   4.607   3.111   1.874  3.2837 -1.4517  2.7953
 1757SOL    HW2 7027   4.507   3.136   1.984  2.0399 -0.0967  1.4075
 1757SOL     MW 7028   4.539   3.084   1.922  0.7706  0.1815  0.4736
 1758SOL     OW 7029   2.799   4.971   3.337 -0.0411 -0.3047  0.4030
 1758SOL    HW1 7030   2.817   5.065   3.334  1.7498 -0.6362 -1.0157
 1758SOL    HW2 7031   2.706   4.964   3.315 -0.3765  1.1559  1.2528
 1758SOL     MW 7032   2.789   4.982   3.334  0.1452 -0.1602  0.3302
 1759SOL     OW 7033   3.971   1.919   4.643  0.4895  0.0725 -0.6085
 1759SOL    HW1 7034   4.039   1.932   4.709  0.9183 -0.7514 -0.8747
 1759SOL    HW2 7035   3.920   2.000   4.645 -0.0547 -0.2824  1.3501
 1759SOL     MW 7036   3.973   1.931   4.652  0.4747 -0.0784 -0.3918
 1760SOL     OW 7037   2.930   1.840   1.368 -0.3370  0.4914  0.1012
 1760SOL    HW1 7038   2.843   1.800   1.361  0.3235 -0.8738 -0.5183
 1760SOL    HW2 7039   2.938   1.893   1.289 -0.8056  1.0513  0.4199
 1760SOL     MW 7040   2.920   1.842   1.357 -0.3124  0.3883  0.0627
 1761SOL     OW 7041   4.115   4.573   2.573  0.1423 -0.2822 -0.3496
 1761SOL    HW1 7042   4.124   4.558   2.667 -3.7781 -1.0745  0.0684
 1761SOL    HW2 7043   4.100   4.667   2.565  2.1255  0.0686 -0.4510
 1761SOL     MW 7044   4.114   4.583   2.584 -0.1057 -0.3387 -0.3091
 1762SOL     OW 7045   3.875   4.152   5.055 -0.1315  0.0009  0.2300
 1762SOL    HW1 7046   3.855   4.103   5.135 -1.7823  1.1001  0.5369
 1762SOL    HW2 7047   3.793   4.196   5.032  0.7950  1.1566 -1.0592
 1762SOL     MW 7048   3.862   4.151   5.062 -0.2242  0.2896  0.1043
 1763SOL     OW 7049   1.948   1.029   3.710 -0.1675 -0.2943 -0.6250
 1763SOL    HW1 7050   1.883   0.961   3.692 -1.0882  0.7955 -1.5778
 1763SOL    HW2 7051   1.959   1.074   3.626  1.7256 -0.3513 -0.4429
 1763SOL     MW 7052   1.941   1.026   3.697 -0.0430 -0.1621 -0.7237
 1764SOL     OW 7053   2.245   3.172   2.664  0.1555 -0.5887 -0.0434
 1764SOL    HW1 7054   2.244   3.135   2.752 -2.3929 -0.5426  0.0230
 1764SOL    HW2 7055   2.162   3.146   2.626 -0.3759  2.3244 -1.1638
 1764SOL     MW 7056   2.234   3.164   2.670 -0.2387 -0.2099 -0.1783
 1765SOL     OW 7057   5.187   2.312   3.460 -0.0659  0.1583 -0.0473
 1765SOL    HW1 7058   5.234   2.249   3.405 -0.6873  1.6901 -2.4513
 1765SOL    HW2 7059   5.236   2.312   3.543  3.5823  0.8364 -1.9828
 1765SOL     MW 7060   5.200   2.304   3.464  0.3216  0.4412 -0.6028
 1766SOL     OW 7061   5.187   0.814   4.230  0.3055 -0.0828  0.2168
 1766SOL    HW1 7062   5.244   0.847   4.160 -0.3773 -1.5470 -1.0969
 1766SOL    HW2 7063   5.210   0.721   4.237 -0.9748 -0.3950  0.5893
 1766SOL     MW 7064   5.197   0.806   4.222  0.0542 -0.3102  0.0963
 1767SOL     OW 7065   2.384   3.367   2.369  0.0758  0.1525 -0.0059
 1767SOL    HW1 7066   2.426   3.360   2.455  1.9475  0.8501 -0.8088
 1767SOL    HW2 7067   2.400   3.457   2.341  0.1842 -0.2736 -1.4119
 1767SOL     MW 7068   2.391   3.378   2.376  0.3293  0.1872 -0.2886
 1768SOL     OW 7069   2.579   3.611   0.197  0.6175 -0.3364 -0.4221
 1768SOL    HW1 7070   2.523   3.542   0.233  0.4771 -1.2332 -2.2339
 1768SOL    HW2 7071   2.518   3.677   0.165  0.6854 -0.1958 -0.2613
 1768SOL     MW 7072   2.564   3.610   0.198  0.6083 -0.4332 -0.6334
 1769SOL     OW 7073   1.588   2.902   4.224 -0.2688 -0.1898  0.1399
 1769SOL    HW1 7074   1.624   2.814   4.235  0.0466 -0.2347 -1.1126
 1769SOL    HW2 7075   1.638   2.939   4.151  0.7458  1.6561  1.7130
 1769SOL     MW 7076   1.599   2.895   4.216 -0.0986  0.0407  0.1809
 1770SOL     OW 7077   1.118   2.214   4.268 -0.1914 -0.2822  0.4013
 1770SOL    HW1 7078   1.206   2.217   4.231 -1.0772 -1.8052 -2.1053
 1770SOL    HW2 7079   1.078   2.296   4.240 -0.5203 -0.9715 -1.2481
 1770SOL     MW 7080   1.124   2.225   4.260 -0.3469 -0.5654 -0.1307
 1771SOL     OW 7081   3.351   5.262   1.577  0.5678 -0.0654 -0.2458
 1771SOL    HW1 7082   3.294   5.208   1.632  1.0212 -0.1775  0.1203
 1771SOL    HW2 7083   3.291   5.317   1.526  0.0831 -1.1228 -0.8447
 1771SOL     MW 7084   3.336   5.262   1.578  0.5638 -0.2151 -0.2756
 1772SOL     OW 7085   3.153   2.951   3.901  0.5675 -0.1059 -0.1032
 1772SOL    HW1 7086   3.133   2.961   3.994 -1.3324  0.5347 -0.5339
 1772SOL    HW2 7087   3.248   2.939   3.898  0.5416 -1.4066  2.0048
 1772SOL     MW 7088   3.163   2.950   3.912  0.3210 -0.1904  0.1115
 1773SOL     OW 7089   3.979   1.891   1.399 -0.5311 -0.1289 -0.2787
 1773SOL    HW1 7090   3.996   1.913   1.491  0.6653 -0.0117 -0.5063
 1773SOL    HW2 7091   4.007   1.800   1.391 -0.9159 -0.2315 -0.4592
 1773SOL     MW 7092   3.985   1.883   1.410 -0.4272 -0.1270 -0.3310
 1774SOL     OW 7093   4.309   4.796   0.490 -0.3720 -0.2839 -0.0279
 1774SOL    HW1 7094   4.317   4.700   0.492 -0.7882 -0.3922 -1.8035
 1774SOL    HW2 7095   4.359   4.826   0.566  1.0281 -1.8429 -0.2681
 1774SOL     MW 7096   4.317   4.787   0.500 -0.2460 -0.4973 -0.2859
 1775SOL     OW 7097   0.434   2.121   3.672  0.0917  0.4159  0.1190
 1775SOL    HW1 7098   0.448   2.038   3.718 -0.5830  0.6639  0.8033
 1775SOL    HW2 7099   0.521   2.149   3.646  0.8124  1.2901  3.1066
 1775SOL     MW 7100   0.447   2.114   3.675  0.0976  0.5596  0.5891
 1776SOL     OW 7101   5.134   0.306   4.618 -0.2043  0.0616 -0.5800
 1776SOL    HW1 7102   5.193   0.356   4.562 -0.1720 -0.2889 -0.8602
 1776SOL    HW2 7103   5.047   0.340   4.597 -0.0175  1.4822  0.7513
 1776SOL     MW 7104   5.130   0.317   4.608 -0.1762  0.1985 -0.4454
 1777SOL     OW 7105   3.406   4.904   0.034 -0.3101 -0.3996  0.1654
 1777SOL    HW1 7106   3.466   4.946   0.096  0.7806 -1.2229 -0.2918
 1777SOL    HW2 7107   3.361   4.838   0.087 -0.4722 -0.1049  0.4029
 1777SOL     MW 7108   3.408   4.901   0.049 -0.1912 -0.4673  0.1373
 1778SOL     OW 7109   1.578   1.023   0.281  0.5488  0.1051 -0.1568
 1778SOL    HW1 7110   1.555   1.109   0.245  0.3032 -0.0122 -0.2865
 1778SOL    HW2 7111   1.494   0.986   0.308  0.8781  0.8819  2.1200
 1778SOL     MW 7112   1.564   1.029   0.280  0.5595  0.1895  0.1181
 1779SOL     OW 7113   3.345   1.410   3.983  0.1413 -0.1370 -0.2936
 1779SOL    HW1 7114   3.307   1.474   4.044 -0.6442 -0.6565 -0.2243
 1779SOL    HW2 7115   3.346   1.328   4.032  1.3429 -0.1505 -0.3098
 1779SOL     MW 7116   3.340   1.408   3.997  0.1945 -0.2052 -0.2868
 1780SOL     OW 7117   2.864   3.699   2.210  0.0158  0.2082  0.0063
 1780SOL    HW1 7118   2.913   3.672   2.287 -0.8207 -0.1302  0.4419
 1780SOL    HW2 7119   2.927   3.695   2.138  0.7155  0.1857  0.6087
 1780SOL     MW 7120   2.878   3.695   2.210 -0.0017  0.1620  0.1392
 1781SOL     OW 7121   0.596   4.705   0.685  0.4377 -0.2486  1.2577
 1781SOL    HW1 7122   0.688   4.685   0.702  0.2325 -1.1504  1.3912
 1781SOL    HW2 7123   0.553   4.694   0.770  0.2329  0.3488  1.2355
 1781SOL     MW 7124   0.602   4.701   0.699  0.3852 -0.2875  1.2719
 1782SOL     OW 7125   2.690   3.513   5.350  0.0452 -0.3252  0.0259
 1782SOL    HW1 7126   2.597   3.516   5.374  0.0463  1.3789 -0.0339
 1782SOL    HW2 7127   2.735   3.544   5.429  0.4572  0.0903 -0.3716
 1782SOL     MW 7128   2.684   3.518   5.363  0.0981 -0.0539 -0.0326
 1783SOL     OW 7129   2.296   2.455   0.117 -0.0944  0.0496  0.1835
 1783SOL    HW1 7130   2.206   2.465   0.148 -0.1875  1.2622 -0.3887
 1783SOL    HW2 7131   2.350   2.475   0.193 -0.3244  0.9174  0.1350
 1783SOL     MW 7132   2.292   2.459   0.131 -0.1358  0.3160  0.1040
 1784SOL     OW 7133   0.814   3.278   5.015  0.1777  0.2436  0.1353
 1784SOL    HW1 7134   0.744   3.288   4.951  0.2678  0.7284  0.1079
 1784SOL    HW2 7135   0.858   3.196   4.991 -0.4417 -0.1124  0.2158
 1784SOL     MW 7136   0.811   3.269   5.004  0.1099  0.2601  0.1421
 1785SOL     OW 7137   3.380   0.262   0.559  0.4038 -0.3735 -0.0646
 1785SOL    HW1 7138   3.370   0.258   0.464  0.3940 -1.7963 -0.0156
 1785SOL    HW2 7139   3.290   0.252   0.592  0.5235 -0.8813  0.1109
 1785SOL     MW 7140   3.367   0.261   0.551  0.4179 -0.6206 -0.0359
 1786SOL     OW 7141   4.240   0.687   1.922  0.1600 -0.7320  0.0057
 1786SOL    HW1 7142   4.313   0.684   1.984  0.8847 -0.5124 -0.8222
 1786SOL    HW2 7143   4.209   0.596   1.918  1.1859 -1.0801 -0.5549
 1786SOL     MW 7144   4.245   0.675   1.929  0.3841 -0.7485 -0.1721
 1787SOL     OW 7145   1.237   1.633   0.179  1.0009  0.0738 -0.1421
 1787SOL    HW1 7146   1.173   1.616   0.247  0.0296 -1.8195 -1.4358
 1787SOL    HW2 7147   1.282   1.713   0.207 -0.2494  0.0858  2.0097
 1787SOL     MW 7148   1.235   1.641   0.191  0.7165 -0.1670 -0.0323
 1788SOL     OW 7149   5.123   3.659   1.820  0.1498 -0.3566 -0.3531
 1788SOL    HW1 7150   5.062   3.614   1.761 -0.2247  0.7705 -0.8690
 1788SOL    HW2 7151   5.129   3.748   1.784  1.4803 -0.2230  0.1634
 1788SOL     MW 7152   5.116   3.665   1.808  0.2722 -0.1952 -0.3530
 1789SOL     OW 7153   4.980   4.356   2.208  0.2194  0.5923  0.4574
 1789SOL    HW1 7154   5.056   4.301   2.228  1.5479  1.5206 -1.5856
 1789SOL    HW2 7155   4.916   4.297   2.170  0.6557  0.0629  0.5377
 1789SOL     MW 7156   4.982   4.342   2.206  0.4453  0.6433  0.2061
 1790SOL     OW 7157   2.880   2.807   3.228  0.5268  0.4981  0.2902
 1790SOL    HW1 7158   2.808   2.830   3.288  1.0646  0.8107  0.8310
 1790SOL    HW2 7159   2.896   2.714   3.245 -0.8830 -0.0311 -1.0715
 1790SOL     MW 7160   2.873   2.798   3.238  0.4152  0.4704  0.1851
 1791SOL     OW 7161   4.995   0.517   0.557  0.4861 -0.1816 -0.5018
 1791SOL    HW1 7162   4.978   0.430   0.593 -0.8292 -0.4630 -1.7064
 1791SOL    HW2 7163   5.053   0.501   0.483  1.2363  0.1255  0.0074
 1791SOL     MW 7164   5.000   0.504   0.553  0.4137 -0.1783 -0.5908
 1792SOL     OW 7165   4.761   2.439   4.168 -0.1313 -0.4715  0.2673
 1792SOL    HW1 7166   4.706   2.380   4.218 -0.4921  0.3394  0.8535
 1792SOL    HW2 7167   4.708   2.519   4.158 -0.7351 -1.1391 -2.8162
 1792SOL     MW 7168   4.747   2.442   4.173 -0.2548 -0.4531 -0.0524
 1793SOL     OW 7169   0.458   3.381   4.748 -0.6457 -0.5982  0.4779
 1793SOL    HW1 7170   0.476   3.452   4.810 -0.2014 -0.1781 -0.1239
 1793SOL    HW2 7171   0.484   3.416   4.663  0.4391 -1.7944  0.2847
 1793SOL     MW 7172   0.463   3.395   4.745 -0.4500 -0.6975  0.3761
 1794SOL     OW 7173   5.037   1.493   0.011  0.0771 -0.8078  0.6177
 1794SOL    HW1 7174   5.083   1.552   0.072  0.2538 -0.1858 -0.1079
 1794SOL    HW2 7175   4.956   1.470   0.057 -0.0103  0.0325  0.9080
 1794SOL     MW 7176   5.032   1.498   0.025  0.0885 -0.6206  0.5619
 1795SOL     OW 7177   2.942   0.708   3.885  0.8140  0.6893  0.1375
 1795SOL    HW1 7178   3.024   0.740   3.922  0.4273 -0.0045  1.6530
 1795SOL    HW2 7179   2.927   0.624   3.929 -0.7472  0.8359 -0.0667
 1795SOL     MW 7180   2.951   0.701   3.895  0.5646  0.6193  0.3054
 1796SOL     OW 7181   0.889   3.640   3.769 -0.3376  0.1082  0.1692
 1796SOL    HW1 7182   0.828   3.693   3.820 -0.1163  0.0837  0.4646
 1796SOL    HW2 7183   0.913   3.568   3.828 -0.8918 -0.5094 -0.3402
 1796SOL     MW 7184   0.884   3.637   3.783 -0.3802  0.0260  0.1418
 1797SOL     OW 7185   3.147   1.173   4.365 -0.3723 -0.0657  0.4004
 1797SOL    HW1 7186   3.233   1.176   4.405  0.7291  0.8308 -1.8304
 1797SOL    HW2 7187   3.121   1.265   4.356 -0.2924 -0.1780 -1.3905
 1797SOL     MW 7188   3.154   1.185   4.369 -0.2211  0.0347 -0.1144
 1798SOL     OW 7189   2.537   4.151   5.147 -0.0040 -0.7207  0.0643
 1798SOL    HW1 7190   2.620   4.103   5.157 -0.4623 -1.8148 -1.1742
 1798SOL    HW2 7191   2.469   4.084   5.157 -0.7046 -0.0699 -0.2547
 1798SOL     MW 7192   2.539   4.136   5.150 -0.1523 -0.7774 -0.1351
 1799SOL     OW 7193   3.766   2.409   1.320 -0.2275  0.0917  0.2569
 1799SOL    HW1 7194   3.733   2.363   1.397 -0.3899  0.9389  0.7127
 1799SOL    HW2 7195   3.812   2.343   1.270 -0.2326 -0.5027  1.0202
 1799SOL     MW 7196   3.767   2.395   1.323 -0.2490  0.1241  0.4130
 1800SOL     OW 7197   1.186   3.857   3.665 -0.5898 -0.3396  0.2001
 1800SOL    HW1 7198   1.280   3.839   3.674 -0.4012  0.0190 -0.9372
 1800SOL    HW2 7199   1.144   3.774   3.686 -0.0281 -0.4778  0.8220
 1800SOL     MW 7200   1.193   3.844   3.669 -0.4937 -0.3114  0.1342
 1801SOL     OW 7201   3.885   1.248   2.316 -0.6244 -0.4976 -0.6421
 1801SOL    HW1 7202   3.861   1.162   2.350 -0.0851 -0.5109 -0.2918
 1801SOL    HW2 7203   3.967   1.234   2.269 -0.6411 -0.2107 -0.7601
 1801SOL     MW 7204   3.892   1.235   2.314 -0.5575 -0.4626 -0.6123
 1802SOL     OW 7205   4.397   4.428   2.750 -0.6066 -0.4879  0.0823
 1802SOL    HW1 7206   4.353   4.400   2.670  0.3241  0.2177 -0.7104
 1802SOL    HW2 7207   4.329   4.469   2.802 -1.6067 -2.5137  0.4583
 1802SOL     MW 7208   4.383   4.430   2.746 -0.6155 -0.6569  0.0290
 1803SOL     OW 7209   2.477   5.266   2.515  0.3998 -0.0764  0.1839
 1803SOL    HW1 7210   2.548   5.286   2.577  0.8827 -0.7737 -0.1337
 1803SOL    HW2 7211   2.494   5.176   2.487 -0.6906 -0.3012  0.2008
 1803SOL     MW 7212   2.488   5.257   2.520  0.3220 -0.1945  0.1454
 1804SOL     OW 7213   2.701   3.158   4.953 -0.1511 -0.3496  0.1728
 1804SOL    HW1 7214   2.790   3.168   4.919 -0.3724  0.2069 -0.2423
 1804SOL    HW2 7215   2.645   3.199   4.888 -0.5104  1.7182  1.6946
 1804SOL     MW 7216   2.706   3.164   4.940 -0.2254 -0.0137  0.3144
 1805SOL     OW 7217   0.870   1.373   2.183  0.1526 -0.4783  0.0681
 1805SOL    HW1 7218   0.887   1.417   2.266  0.6546 -1.6155  0.5747
 1805SOL    HW2 7219   0.943   1.400   2.126  0.1902 -0.2657  0.2165
 1805SOL     MW 7220   0.882   1.382   2.186  0.2217 -0.5967  0.1519
 1806SOL     OW 7221   4.548   2.023   4.881 -0.0864 -0.0798 -0.3504
 1806SOL    HW1 7222   4.507   1.959   4.939  1.3349  0.2247  1.0475
 1806SOL    HW2 7223   4.603   2.076   4.938 -0.5129  1.8216 -1.6127
 1806SOL     MW 7224   4.550   2.022   4.896  0.0409  0.2026 -0.3331
 1807SOL     OW 7225   3.115   4.035   2.981  0.5114 -0.0603 -0.3379
 1807SOL    HW1 7226   3.120   3.946   3.013 -1.0116 -0.4210 -1.0248
 1807SOL    HW2 7227   3.028   4.042   2.942  0.4114  1.8697  0.1369
 1807SOL     MW 7228   3.104   4.025   2.980  0.3037  0.1406 -0.3650
 1808SOL     OW 7229   0.771   2.106   0.456  0.4877 -0.0635 -0.3956
 1808SOL    HW1 7230   0.816   2.086   0.374  0.5708  3.5063 -1.4316
 1808SOL    HW2 7231   0.829   2.169   0.500 -0.2917 -0.7226  1.6771
 1808SOL     MW 7232   0.784   2.112   0.451  0.3986  0.3091 -0.2629
 1809SOL     OW 7233   0.542   1.062   2.067  0.1122 -0.0448  0.2719
 1809SOL    HW1 7234   0.629   1.071   2.106  0.1671 -0.5827  0.2774
 1809SOL    HW2 7235   0.537   1.133   2.003  1.1533 -0.9194 -0.8299
 1809SOL     MW 7236   0.552   1.073   2.064  0.2525 -0.2256  0.1315
 1810SOL     OW 7237   4.683   2.852   0.680 -0.1414  0.6016 -0.4066
 1810SOL    HW1 7238   4.758   2.831   0.735  1.1332 -1.8437 -2.8068
 1810SOL    HW2 7239   4.716   2.916   0.617  0.5858 -1.6553 -2.4812
 1810SOL     MW 7240   4.696   2.857   0.679  0.1148 -0.0003 -0.9794
 1811SOL     OW 7241   0.858   1.257   4.383  0.2199 -0.0801  0.1759
 1811SOL    HW1 7242   0.898   1.206   4.312  0.0148 -0.3779  0.2711
 1811SOL    HW2 7243   0.858   1.198   4.458 -0.2863 -0.0470  0.2088
 1811SOL     MW 7244   0.863   1.243   4.383  0.1289 -0.1140  0.1923
 1812SOL     OW 7245   1.106   2.760   4.231 -0.0415  0.6597  0.1238
 1812SOL    HW1 7246   1.026   2.771   4.180 -0.4455 -2.0049  0.0612
 1812SOL    HW2 7247   1.120   2.846   4.271 -0.3207  2.5615 -3.4798
 1812SOL     MW 7248   1.097   2.772   4.230 -0.1290  0.5621 -0.3456
 1813SOL     OW 7249   5.224   2.171   3.872 -0.1319 -0.1280  0.4375
 1813SOL    HW1 7250   5.240   2.079   3.850 -0.2635  0.0930 -0.6518
 1813SOL    HW2 7251   5.309   2.204   3.900  0.1727 -0.3021 -0.2520
 1813SOL     MW 7252   5.237   2.163   3.873 -0.1097 -0.1220  0.2098
 1814SOL     OW 7253   3.306   3.536   3.339 -0.1807 -0.0738  0.2388
 1814SOL    HW1 7254   3.387   3.507   3.381  0.8249  1.7412 -0.3302
 1814SOL    HW2 7255   3.308   3.496   3.252 -0.8271 -1.4884  0.8478
 1814SOL     MW 7256   3.316   3.528   3.333 -0.1348 -0.0225  0.2439
 1815SOL     OW 7257   3.107   4.736   3.780 -0.2548 -0.4077 -0.0828
 1815SOL    HW1 7258   3.054   4.717   3.703  0.7790 -2.6989 -0.3127
 1815SOL    HW2 7259   3.197   4.724   3.750  0.1384 -2.2127  1.6406
 1815SOL     MW 7260   3.112   4.732   3.766 -0.0722 -0.9321  0.1084
 1816SOL     OW 7261   3.750   1.187   2.928 -0.0681 -0.8212 -0.7290
 1816SOL    HW1 7262   3.752   1.224   2.840  2.3583 -0.0884 -0.4432
 1816SOL    HW2 7263   3.787   1.099   2.918 -0.4350 -0.9986 -0.5451
 1816SOL     MW 7264   3.755   1.180   2.915  0.1955 -0.7501 -0.6689
 1817SOL     OW 7265   4.366   4.292   0.911  0.4188 -0.3011 -0.1909
 1817SOL    HW1 7266   4.411   4.264   0.991 -2.7520 -0.4913  1.7197
 1817SOL    HW2 7267   4.354   4.211   0.861 -0.5434 -0.8103  0.8237
 1817SOL     MW 7268   4.370   4.278   0.915 -0.1103 -0.3906  0.1836
 1818SOL     OW 7269   1.932   2.288   3.844 -0.1046  0.2293  0.5988
 1818SOL    HW1 7270   1.936   2.197   3.873 -2.1414 -0.0717  0.0454
 1818SOL    HW2 7271   1.997   2.333   3.899  0.4247 -1.4059  1.3816
 1818SOL     MW 7272   1.941   2.282   3.855 -0.2976 -0.0186  0.6282
 1819SOL     OW 7273   4.350   4.710   1.325  0.5499  0.7494  0.6657
 1819SOL    HW1 7274   4.415   4.654   1.368  1.6985 -0.3991 -2.3128
 1819SOL    HW2 7275   4.402   4.773   1.275 -0.5938  0.2679 -1.2109
 1819SOL     MW 7276   4.365   4.711   1.324  0.5506  0.5408  0.0442
 1820SOL     OW 7277   1.069   5.345   4.343  0.2891 -0.1542  0.1566
 1820SOL    HW1 7278   0.996   5.290   4.314  0.7465 -0.9194  0.4117
 1820SOL    HW2 7279   1.147   5.289   4.331  0.8033  0.5556  0.1236
 1820SOL     MW 7280   1.070   5.331   4.338  0.4135 -0.1613  0.1851
 1821SOL     OW 7281   3.184   3.883   4.037  0.0992 -0.1417  0.5837
 1821SOL    HW1 7282   3.132   3.809   4.068  1.1480 -0.9140  0.5545
 1821SOL    HW2 7283   3.259   3.843   3.993  0.9365  0.9379  0.9810
 1821SOL     MW 7284   3.186   3.868   4.035  0.3406 -0.1024  0.6308
 1822SOL     OW 7285   0.118   2.975   3.698 -0.6270  0.0363 -0.2388
 1822SOL    HW1 7286   0.101   3.068   3.688 -0.9842 -0.0087 -0.0835
 1822SOL    HW2 7287   0.043   2.933   3.656 -0.9674 -0.1714  0.5621
 1822SOL     MW 7288   0.106   2.981   3.692 -0.7163  0.0040 -0.1164
 1823SOL     OW 7289   0.219   2.532   0.182 -0.4208 -0.1753  0.3535
 1823SOL    HW1 7290   0.249   2.547   0.271 -1.2287 -0.1843  0.6350
 1823SOL    HW2 7291   0.258   2.603   0.130  1.8492 -1.3874  0.2823
 1823SOL     MW 7292   0.228   2.543   0.186 -0.2336 -0.3316  0.3804
 1824SOL     OW 7293   1.407   2.545   3.970  0.0875  0.2598  0.1443
 1824SOL    HW1 7294   1.425   2.576   4.059 -0.4007 -0.1948  0.4055
 1824SOL    HW2 7295   1.463   2.599   3.914  1.8027 -0.6947  0.8688
 1824SOL     MW 7296   1.416   2.556   3.974  0.2446  0.0794  0.2705
 1825SOL     OW 7297   4.597   0.568   1.398 -0.2333  0.1881  0.2790
 1825SOL    HW1 7298   4.588   0.555   1.493  1.7982  0.3880  0.5609
 1825SOL    HW2 7299   4.512   0.603   1.370 -0.3065  1.9499  2.3802
 1825SOL     MW 7300   4.585   0.571   1.407  0.0174  0.4392  0.5840
 1826SOL     OW 7301   4.127   3.462   5.362  0.3294 -0.6568 -0.0139
 1826SOL    HW1 7302   4.210   3.510   5.365  0.2143 -0.5222  1.6216
 1826SOL    HW2 7303   4.083   3.496   5.284  1.0120  0.6350  0.1332
 1826SOL     MW 7304   4.132   3.472   5.352  0.4020 -0.4742  0.2143
 1827SOL     OW 7305   3.844   0.171   2.562  0.3413 -0.3517 -0.0531
 1827SOL    HW1 7306   3.878   0.254   2.596 -1.5921 -0.1963  1.7394
 1827SOL    HW2 7307   3.767   0.195   2.512  0.6319 -0.9723 -0.8215
 1827SOL     MW 7308   3.839   0.184   2.560  0.1310 -0.4112  0.0780
 1828SOL     OW 7309   0.038   4.067   5.118  0.5188 -0.4505 -0.0587
 1828SOL    HW1 7310   0.004   4.037   5.034 -0.8014 -1.7989  0.9053
 1828SOL    HW2 7311   0.045   3.988   5.171  1.6648  0.3245  0.9941
 1828SOL     MW 7312   0.034   4.053   5.114  0.4965 -0.5239  0.1995
 1829SOL     OW 7313   3.796   0.250   4.999 -0.3288 -0.2431  0.3272
 1829SOL    HW1 7314   3.725   0.263   5.062 -0.6716  0.0429 -0.1130
 1829SOL    HW2 7315   3.767   0.297   4.920 -0.3573 -1.4131 -0.3791
 1829SOL     MW 7316   3.783   0.258   4.997 -0.3763 -0.3562  0.1805
 1830SOL     OW 7317   1.031   4.706   3.242  0.2323 -0.6227 -0.1739
 1830SOL    HW1 7318   1.070   4.634   3.192  1.2978  0.3001 -0.7401
 1830SOL    HW2 7319   1.076   4.784   3.208 -0.6714  0.2648  0.6390
 1830SOL     MW 7320   1.042   4.707   3.231  0.2530 -0.3909 -0.1423
 1831SOL     OW 7321   1.282   1.360   4.254  0.3108 -0.1621 -0.6094
 1831SOL    HW1 7322   1.298   1.440   4.203 -0.9265  0.1045 -0.6086
 1831SOL    HW2 7323   1.244   1.299   4.191 -0.0219 -0.2782 -0.2962
 1831SOL     MW 7324   1.279   1.362   4.240  0.1098 -0.1429 -0.5692
 1832SOL     OW 7325   0.648   3.290   2.930  0.1562  0.1623 -0.3473
 1832SOL    HW1 7326   0.623   3.317   2.842 -1.2823  2.4472  0.6708
 1832SOL    HW2 7327   0.566   3.269   2.973  0.5715  1.3597  1.1167
 1832SOL     MW 7328   0.635   3.291   2.924  0.0252  0.6081 -0.0296
 1833SOL     OW 7329   4.092   4.803   3.972  0.1480  0.9184  0.5473
 1833SOL    HW1 7330   4.185   4.793   3.954  0.3497  0.2489  1.8740
 1833SOL    HW2 7331   4.073   4.737   4.038 -1.1523  1.4294  0.7122
 1833SOL     MW 7332   4.101   4.794   3.978  0.0073  0.8981  0.7382
 1834SOL     OW 7333   2.852   1.167   3.215 -0.2515  0.6336 -0.1901
 1834SOL    HW1 7334   2.816   1.111   3.284 -0.2826  0.2654 -0.4988
 1834SOL    HW2 7335   2.917   1.112   3.171  0.6602  1.2859  0.3394
 1834SOL     MW 7336   2.856   1.153   3.218 -0.1387  0.6700 -0.1618
 1835SOL     OW 7337   2.475   4.097   1.601  0.2147  0.4894  0.1836
 1835SOL    HW1 7338   2.380   4.098   1.587  0.2064 -1.2818 -0.0646
 1835SOL    HW2 7339   2.487   4.134   1.689 -0.9063 -1.1224  1.0757
 1835SOL     MW 7340   2.464   4.102   1.611  0.0701  0.0563  0.2661
 1836SOL     OW 7341   3.493   1.490   4.385 -0.0903 -0.0067  0.1016
 1836SOL    HW1 7342   3.457   1.403   4.399 -1.7919  0.6796  0.2909
 1836SOL    HW2 7343   3.555   1.502   4.458 -1.0040 -0.4836  0.9896
 1836SOL     MW 7344   3.496   1.481   4.396 -0.4251  0.0201  0.2395
 1837SOL     OW 7345   0.115   5.298   5.103  0.3607 -0.6699 -0.4886
 1837SOL    HW1 7346   0.141   5.284   5.193 -0.4655  0.1178 -0.1055
 1837SOL    HW2 7347   0.022   5.277   5.101  0.0576  0.6121 -0.8313
 1837SOL     MW 7348   0.106   5.294   5.114  0.2161 -0.4049 -0.4834
 1838SOL     OW 7349   4.785   4.367   4.574  0.1042  0.3079  0.2191
 1838SOL    HW1 7350   4.751   4.452   4.546 -1.9901 -0.2937  0.7000
 1838SOL    HW2 7351   4.822   4.384   4.661  1.2230  1.0162 -0.3725
 1838SOL     MW 7352   4.785   4.380   4.582 -0.0207  0.3216  0.2049
 1839SOL     OW 7353   1.421   1.546   4.079  0.1255  0.0303  0.7259
 1839SOL    HW1 7354   1.456   1.619   4.130  1.2063  0.8187 -1.0213
 1839SOL    HW2 7355   1.387   1.588   4.000 -1.7979 -1.1072  0.9104
 1839SOL     MW 7356   1.421   1.561   4.075  0.0177 -0.0144  0.5259
 1840SOL     OW 7357   0.776   2.294   4.025 -0.0277 -0.3044  0.0290
 1840SOL    HW1 7358   0.825   2.253   3.954 -1.2365  0.6168 -1.3927
 1840SOL    HW2 7359   0.694   2.323   3.984 -0.5132  0.7811  1.6706
 1840SOL     MW 7360   0.771   2.292   4.011 -0.2446 -0.0475  0.0572
 1841SOL     OW 7361   4.388   3.771   0.927  0.6325  0.4428 -0.5089
 1841SOL    HW1 7362   4.446   3.761   1.002 -1.8735  2.0559  1.8107
 1841SOL    HW2 7363   4.330   3.694   0.931  2.4187 -1.2134 -2.8656
 1841SOL     MW 7364   4.388   3.760   0.937  0.5404  0.4373 -0.5137
 1842SOL     OW 7365   1.691   3.125   2.608  0.0029 -0.3729  0.1384
 1842SOL    HW1 7366   1.622   3.124   2.542 -0.4767 -0.7012  0.6348
 1842SOL    HW2 7367   1.649   3.091   2.687  0.5067  0.2040  0.6695
 1842SOL     MW 7368   1.677   3.121   2.610  0.0060 -0.3411  0.2700
 1843SOL     OW 7369   2.087   2.941   3.519 -0.4456 -0.1331 -0.7074
 1843SOL    HW1 7370   2.033   3.011   3.555 -0.3245 -0.5608  0.3371
 1843SOL    HW2 7371   2.145   2.985   3.457 -0.1820  0.7432  0.1336
 1843SOL     MW 7372   2.088   2.955   3.516 -0.3964 -0.0757 -0.4660
 1844SOL     OW 7373   3.807   1.667   4.974  0.5804 -0.3511  0.7450
 1844SOL    HW1 7374   3.792   1.610   5.050  0.9375 -0.1979  0.9338
 1844SOL    HW2 7375   3.877   1.624   4.926  0.2642 -0.5162  0.4288
 1844SOL     MW 7376   3.814   1.654   4.978  0.5856 -0.3526  0.7287
 1845SOL     OW 7377   4.973   2.502   2.984 -0.3395  0.3020  0.2094
 1845SOL    HW1 7378   4.961   2.436   2.916 -0.2720  0.6497 -0.1467
 1845SOL    HW2 7379   5.063   2.490   3.014 -0.0890  0.6840 -0.3539
 1845SOL     MW 7380   4.983   2.492   2.979 -0.2988  0.3954  0.0917
 1846SOL     OW 7381   2.444   0.560   4.972  0.0559 -0.0996  0.6455
 1846SOL    HW1 7382   2.532   0.590   4.996  0.5273 -0.2192 -0.8402
 1846SOL    HW2 7383   2.451   0.536   4.880 -1.7724  0.7917  0.2215
 1846SOL     MW 7384   2.456   0.561   4.964 -0.1178 -0.0008  0.4010
 1847SOL     OW 7385   2.929   0.827   2.240 -0.0296  0.1810 -0.7970
 1847SOL    HW1 7386   2.884   0.789   2.164 -0.3826 -2.3559  0.5829
 1847SOL    HW2 7387   3.017   0.847   2.208 -0.6160  0.6269 -2.2491
 1847SOL     MW 7388   2.934   0.825   2.226 -0.1499 -0.0867 -0.8063
 1848SOL     OW 7389   5.013   2.358   4.959  0.1318  0.3013 -0.8459
 1848SOL    HW1 7390   5.001   2.319   5.046  1.8389  1.1440 -0.1741
 1848SOL    HW2 7391   4.987   2.290   4.898  1.5245 -1.3554  0.2932
 1848SOL     MW 7392   5.008   2.345   4.962  0.5286  0.1971 -0.6141
 1849SOL     OW 7393   3.656   0.728   3.321 -0.0461  0.4497  0.1740
 1849SOL    HW1 7394   3.749   0.741   3.343  0.1003  0.0210 -0.1644
 1849SOL    HW2 7395   3.654   0.641   3.280 -0.6189  0.4068  0.2908
 1849SOL     MW 7396   3.668   0.718   3.319 -0.1007  0.3893  0.1456
 1850SOL     OW 7397   5.058   5.166   1.312 -0.4320  0.2607 -0.3357
 1850SOL    HW1 7398   5.083   5.228   1.244 -1.4231 -1.3993 -2.3519
 1850SOL    HW2 7399   4.970   5.193   1.338 -0.0356  0.9238  0.3214
 1850SOL     MW 7400   5.050   5.177   1.306 -0.5082  0.1331 -0.5097
 1851SOL     OW 7401   3.959   0.269   2.957  0.4755 -0.0988  0.5031
 1851SOL    HW1 7402   3.884   0.222   2.921  0.9341 -0.2620 -0.2629
 1851SOL    HW2 7403   4.036   0.227   2.917  0.9553  0.3705  0.9112
 1851SOL     MW 7404   3.959   0.258   2.947  0.5956 -0.0596  0.4573
 1852SOL     OW 7405   4.739   2.292   3.951  0.4012  0.1843 -0.4636
 1852SOL    HW1 7406   4.711   2.347   3.878  1.3108 -0.4737 -1.3555
 1852SOL    HW2 7407   4.749   2.352   4.025 -0.0326  0.9551 -1.0211
 1852SOL     MW 7408   4.737   2.306   3.951  0.4621  0.1988 -0.6491
 1853SOL     OW 7409   0.202   1.899   4.995  0.1049 -0.0995 -0.3639
 1853SOL    HW1 7410   0.135   1.947   4.946 -0.6695 -0.9003 -0.1114
 1853SOL    HW2 7411   0.283   1.912   4.945 -0.3951  0.2230 -1.1006
 1853SOL     MW 7412   0.204   1.907   4.982 -0.0582 -0.1607 -0.4259
 1854SOL     OW 7413   2.225   3.376   4.357  0.3273  0.3892 -0.2826
 1854SOL    HW1 7414   2.214   3.439   4.286 -0.6115 -0.9320 -1.3580
 1854SOL    HW2 7415   2.281   3.308   4.320  0.8348  0.2666  0.6626
 1854SOL     MW 7416   2.231   3.375   4.343  0.2721  0.2044 -0.2993
 1855SOL     OW 7417   4.263   0.047   5.407  0.5720  0.2989 -0.1041
 1855SOL    HW1 7418   4.295  -0.043   5.397  0.8202  0.4238 -0.4323
 1855SOL    HW2 7419   4.233   0.072   5.320  0.2355  0.4370  0.0481
 1855SOL     MW 7420   4.263   0.038   5.395  0.5607  0.3326 -0.1266
 1856SOL     OW 7421   2.945   1.412   4.000 -0.0578 -0.0300  0.6393
 1856SOL    HW1 7422   2.919   1.325   4.030 -2.2496  0.2479 -0.2808
 1856SOL    HW2 7423   3.004   1.394   3.926 -0.3251 -0.7482  0.5867
 1856SOL     MW 7424   2.949   1.398   3.994 -0.3726 -0.0863  0.5148
 1857SOL     OW 7425   5.422   4.271   0.154 -0.0429 -0.1397  0.2648
 1857SOL    HW1 7426   5.440   4.179   0.173 -1.4403 -0.6915 -0.8578
 1857SOL    HW2 7427   5.375   4.269   0.070  2.1595  1.8085 -1.1464
 1857SOL     MW 7428   5.418   4.259   0.145  0.0601  0.0391 -0.0596
 1858SOL     OW 7429   4.004   0.346   0.594 -0.0257 -0.0134 -0.0444
 1858SOL    HW1 7430   4.019   0.414   0.529  0.7379 -0.4753 -0.3611
 1858SOL    HW2 7431   3.940   0.287   0.553 -0.1376  0.1182 -0.0585
 1858SOL     MW 7432   3.997   0.347   0.580  0.0577 -0.0557 -0.0867
 1859SOL     OW 7433   1.978   2.853   1.975 -0.1875 -0.0682 -0.3651
 1859SOL    HW1 7434   1.944   2.900   2.051  0.0079  0.1398 -0.4059
 1859SOL    HW2 7435   2.008   2.769   2.010 -1.2191 -0.4669 -0.4146
 1859SOL     MW 7436   1.977   2.848   1.989 -0.2946 -0.0926 -0.3766
 1860SOL     OW 7437   4.644   3.462   0.326  0.3365 -0.1243  0.4580
 1860SOL    HW1 7438   4.569   3.402   0.327 -0.2115  0.4953 -0.9095
 1860SOL    HW2 7439   4.608   3.546   0.353  0.3850  0.3044 -0.7363
 1860SOL     MW 7440   4.630   3.465   0.329  0.2726  0.0099  0.1300
 1861SOL     OW 7441   4.290   5.071   2.125  0.3132 -0.2342 -0.0118
 1861SOL    HW1 7442   4.327   5.148   2.169  0.0554  0.6420 -1.2787
 1861SOL    HW2 7443   4.311   5.083   2.033 -2.0187 -0.3037 -0.6328
 1861SOL     MW 7444   4.297   5.083   2.119 -0.0183 -0.1310 -0.2535
 1862SOL     OW 7445   1.631   0.803   4.763 -0.0285 -0.2599  0.2555
 1862SOL    HW1 7446   1.600   0.889   4.790  0.8324  0.2399 -0.2848
 1862SOL    HW2 7447   1.577   0.781   4.687  0.2250  0.1274 -0.0391
 1862SOL     MW 7448   1.620   0.811   4.757  0.1141 -0.1463  0.1486
 1863SOL     OW 7449   1.725   3.496   3.399 -0.0097 -0.1694  0.2789
 1863SOL    HW1 7450   1.803   3.535   3.437  0.0788  0.3864 -0.4469
 1863SOL    HW2 7451   1.652   3.533   3.450  0.2260 -1.6058  1.7513
 1863SOL     MW 7452   1.725   3.505   3.410  0.0318 -0.2821  0.3745
 1864SOL     OW 7453   0.690   0.159   2.440  0.2589 -0.2186  0.1533
 1864SOL    HW1 7454   0.658   0.091   2.499 -1.1070 -0.3771 -0.7182
 1864SOL    HW2 7455   0.610   0.200   2.406  0.9855 -0.2982 -1.7692
 1864SOL     MW 7456   0.675   0.156   2.443  0.1771 -0.2491 -0.2043
 1865SOL     OW 7457   2.551   4.294   4.278  0.8969 -0.0904 -0.3036
 1865SOL    HW1 7458   2.549   4.252   4.192 -1.6086 -0.2347 -0.2498
 1865SOL    HW2 7459   2.602   4.373   4.265  0.8651 -0.2945 -1.8314
 1865SOL     MW 7460   2.557   4.298   4.266  0.5721 -0.1350 -0.4923
 1866SOL     OW 7461   2.643   3.787   3.607 -0.1994  0.0626  0.0558
 1866SOL    HW1 7462   2.730   3.750   3.616 -0.5399 -0.7284  0.1098
 1866SOL    HW2 7463   2.620   3.772   3.516  0.4986  2.0283 -0.4961
 1866SOL     MW 7464   2.651   3.781   3.597 -0.1537  0.2130 -0.0079
 1867SOL     OW 7465   2.087   4.126   5.252  0.2953  0.0187 -0.6272
 1867SOL    HW1 7466   2.132   4.193   5.302 -0.4572 -0.7639  1.1812
 1867SOL    HW2 7467   2.007   4.168   5.221  0.1279  0.1364 -0.0387
 1867SOL     MW 7468   2.083   4.140   5.254  0.1776 -0.0664 -0.3203
 1868SOL     OW 7469   2.716   5.044   3.045 -0.1380 -0.5347 -0.6697
 1868SOL    HW1 7470   2.696   5.035   2.952  0.0934 -0.6297 -0.7104
 1868SOL    HW2 7471   2.632   5.031   3.089 -0.8394  2.2083 -1.0087
 1868SOL     MW 7472   2.703   5.041   3.039 -0.1982 -0.1957 -0.7183
 1869SOL     OW 7473   0.468   1.883   3.811  0.0619 -0.3390 -0.3731
 1869SOL    HW1 7474   0.499   1.831   3.737  0.2346 -0.2258 -0.3808
 1869SOL    HW2 7475   0.451   1.819   3.880  0.2644 -0.4072 -0.3866
 1869SOL     MW 7476   0.470   1.868   3.810  0.1099 -0.3333 -0.3758
 1870SOL     OW 7477   2.978   5.159   2.066 -0.0711  0.0864 -0.1316
 1870SOL    HW1 7478   2.935   5.116   2.140  1.5420 -2.4309 -0.5656
 1870SOL    HW2 7479   2.922   5.139   1.991 -0.6129  0.9061  0.0322
 1870SOL     MW 7480   2.965   5.151   2.066  0.0661 -0.1309 -0.1662
 1871SOL     OW 7481   4.258   4.275   2.564  0.6326  0.2429 -0.0741
 1871SOL    HW1 7482   4.244   4.324   2.483  0.1112 -0.5741 -0.4859
 1871SOL    HW2 7483   4.275   4.185   2.535 -1.1243 -0.4015  0.7620
 1871SOL     MW 7484   4.259   4.270   2.550  0.3410  0.0558 -0.0198
 1872SOL     OW 7485   0.970   3.921   5.394  0.2288  0.5371 -0.8161
 1872SOL    HW1 7486   0.890   3.869   5.381 -0.9870  2.5786 -2.0799
 1872SOL    HW2 7487   0.950   3.976   5.470  1.5285 -0.7613  0.5460
 1872SOL     MW 7488   0.957   3.921   5.402  0.2395  0.6323 -0.8035
 1873SOL     OW 7489   2.458   2.173   3.460  0.2608 -0.1244 -0.1626
 1873SOL    HW1 7490   2.427   2.145   3.546  0.8992  0.8330  0.4055
 1873SOL    HW2 7491   2.551   2.151   3.459  0.6066  1.2293  0.0097
 1873SOL     MW 7492   2.466   2.167   3.471  0.3868  0.1714 -0.0678
 1874SOL     OW 7493   5.212   0.052   2.044  0.2581 -0.0002 -0.2831
 1874SOL    HW1 7494   5.298   0.070   2.006  0.3414  1.5508  0.5533
 1874SOL    HW2 7495   5.229   0.032   2.135 -0.2036 -0.4619 -0.2960
 1874SOL     MW 7496   5.225   0.052   2.051  0.2096  0.1392 -0.1777
 1875SOL     OW 7497   3.001   1.104   3.748  0.6938  0.1679  0.3855
 1875SOL    HW1 7498   3.073   1.152   3.707  0.6122  0.2254  0.3088
 1875SOL    HW2 7499   2.959   1.057   3.676 -0.0521  1.0399  0.2293
 1875SOL     MW 7500   3.004   1.104   3.734  0.5878  0.2869  0.3557
 1876SOL     OW 7501   3.391   3.996   4.659  0.1226 -0.6452  0.4184
 1876SOL    HW1 7502   3.449   3.951   4.720  0.2185 -1.0722  0.0247
 1876SOL    HW2 7503   3.372   3.930   4.592  1.1844  0.2224 -0.7819
 1876SOL     MW 7504   3.396   3.981   4.658  0.2708 -0.5888  0.2143
 1877SOL     OW 7505   1.260   0.609   3.019 -0.2747  0.0182 -0.2462
 1877SOL    HW1 7506   1.188   0.668   2.997  0.6192  0.9696 -0.7091
 1877SOL    HW2 7507   1.222   0.521   3.015 -1.5379  0.5348  0.0861
 1877SOL     MW 7508   1.246   0.605   3.016 -0.3220  0.2061 -0.2629
 1878SOL     OW 7509   4.643   2.814   2.484  0.1408 -0.2884 -0.3170
 1878SOL    HW1 7510   4.677   2.832   2.572  0.9711 -0.3862 -0.6051
 1878SOL    HW2 7511   4.552   2.791   2.498  0.6319 -1.7803  0.6737
 1878SOL     MW 7512   4.636   2.814   2.497  0.3100 -0.4919 -0.2270
 1879SOL     OW 7513   1.498   0.405   5.247  0.3551  0.4123 -0.0019
 1879SOL    HW1 7514   1.462   0.322   5.218 -1.8457  1.4773 -0.5926
 1879SOL    HW2 7515   1.528   0.389   5.336  1.9705 -1.5056 -0.8339
 1879SOL     MW 7516   1.497   0.393   5.255  0.2801  0.3031 -0.1840
 1880SOL     OW 7517   0.154   2.358   3.235  0.0170  0.2623  0.1571
 1880SOL    HW1 7518   0.186   2.289   3.293  0.1435 -0.8252 -1.1575
 1880SOL    HW2 7519   0.117   2.424   3.294  1.0126 -0.3410  1.5061
 1880SOL     MW 7520   0.153   2.357   3.250  0.1607  0.0459  0.1615
 1881SOL     OW 7521   0.792   2.183   2.910  0.5852  0.5507 -0.1374
 1881SOL    HW1 7522   0.887   2.170   2.906  0.4573 -0.9791  0.9384
 1881SOL    HW2 7523   0.758   2.137   2.833  0.5803 -0.7332  0.6055
 1881SOL     MW 7524   0.800   2.176   2.900  0.5682  0.1905  0.0954
 1882SOL     OW 7525   2.085   5.463   0.732 -0.1859  0.4962  0.7019
 1882SOL    HW1 7526   2.032   5.440   0.809  0.3071  0.6595  1.0979
 1882SOL    HW2 7527   2.024   5.458   0.659 -0.2493 -1.5081  0.8279
 1882SOL     MW 7528   2.070   5.459   0.733 -0.1309  0.2605  0.7688
 1883SOL     OW 7529   0.400   4.259   3.448 -0.0636 -0.5430 -0.1534
 1883SOL    HW1 7530   0.442   4.345   3.454 -1.0018  0.0583 -1.7123
 1883SOL    HW2 7531   0.435   4.222   3.367 -1.6592 -0.4939 -0.8941
 1883SOL     MW 7532   0.410   4.265   3.438 -0.3879 -0.4597 -0.4478
 1884SOL     OW 7533   2.080   1.279   2.839  0.2626  0.1022 -0.6194
 1884SOL    HW1 7534   2.142   1.329   2.891  1.4073 -0.5736 -1.3117
 1884SOL    HW2 7535   2.041   1.343   2.779  1.3371  0.2882 -1.1453
 1884SOL     MW 7536   2.083   1.294   2.838  0.5467  0.0395 -0.7754
 1885SOL     OW 7537   3.952   1.365   4.304 -0.1106  0.4616  0.4376
 1885SOL    HW1 7538   3.938   1.284   4.353  0.7955  0.1150  0.1296
 1885SOL    HW2 7539   3.870   1.377   4.255 -0.0954 -0.4873  0.1646
 1885SOL     MW 7540   3.939   1.356   4.304  0.0074  0.2957  0.3632
 1886SOL     OW 7541   0.892   3.525   4.203 -0.0830  0.0695 -0.0915
 1886SOL    HW1 7542   0.931   3.612   4.203  0.1192  0.0407 -2.4392
 1886SOL    HW2 7543   0.915   3.488   4.118 -2.1604 -1.3832 -0.1078
 1886SOL     MW 7544   0.900   3.531   4.192 -0.3230 -0.1202 -0.3941
 1887SOL     OW 7545   4.531   3.526   2.990 -0.0594 -0.1960 -0.0716
 1887SOL    HW1 7546   4.594   3.565   3.051 -0.9161  0.2415  0.5639
 1887SOL    HW2 7547   4.482   3.601   2.956 -1.7283 -0.6684  1.1696
 1887SOL     MW 7548   4.533   3.541   2.994 -0.3827 -0.2005  0.1686
 1888SOL     OW 7549   3.763   3.539   1.971 -0.0096 -0.3389 -0.2447
 1888SOL    HW1 7550   3.785   3.546   1.878  1.0605 -1.3536 -0.0916
 1888SOL    HW2 7551   3.681   3.489   1.973  0.4138 -1.0572 -0.6121
 1888SOL     MW 7552   3.755   3.533   1.959  0.1816 -0.5607 -0.2721
 1889SOL     OW 7553   0.062   1.386   4.421  0.2315 -0.4268 -0.3426
 1889SOL    HW1 7554   0.036   1.375   4.330  0.6052  0.8355 -0.6229
 1889SOL    HW2 7555   0.100   1.474   4.425 -0.2704 -0.2465  1.1502
 1889SOL     MW 7556   0.064   1.396   4.410  0.2151 -0.2421 -0.1874
 1890SOL     OW 7557   5.329   4.126   4.583 -0.3018 -0.4942 -0.5323
 1890SOL    HW1 7558   5.257   4.116   4.646  0.0969  0.2593  0.0628
 1890SOL    HW2 7559   5.346   4.220   4.581  2.0233 -0.8045  0.9120
 1890SOL     MW 7560   5.322   4.137   4.591  0.0469 -0.4374 -0.2712
 1891SOL     OW 7561   5.277   2.825   2.344  0.3729  0.2479 -0.3644
 1891SOL    HW1 7562   5.337   2.857   2.277  0.9126 -0.4291 -0.2142
 1891SOL    HW2 7563   5.291   2.731   2.347  0.7979  0.3254  1.1038
 1891SOL     MW 7564   5.286   2.817   2.336  0.4964  0.1712 -0.1572
 1892SOL     OW 7565   4.404   2.903   0.712  0.2551  0.2344  0.2984
 1892SOL    HW1 7566   4.374   2.828   0.661 -2.1402  1.3898 -0.0957
 1892SOL    HW2 7567   4.500   2.897   0.709  0.1603 -1.2810 -1.9980
 1892SOL     MW 7568   4.413   2.893   0.705 -0.0637  0.1883 -0.0460
 1893SOL     OW 7569   3.962   0.294   1.494  0.7184 -0.1491 -0.2453
 1893SOL    HW1 7570   3.976   0.356   1.565  0.3680 -0.3011 -0.0413
 1893SOL    HW2 7571   3.989   0.342   1.415  4.0493 -0.9886  0.2286
 1893SOL     MW 7572   3.967   0.308   1.493  1.0999 -0.2760 -0.1586
 1894SOL     OW 7573   1.629   1.415   1.993  0.2142 -0.0570  0.0072
 1894SOL    HW1 7574   1.652   1.402   2.085 -0.1310 -3.3087 -0.2536
 1894SOL    HW2 7575   1.701   1.376   1.944 -0.1834  0.5655 -1.1128
 1894SOL     MW 7576   1.641   1.408   1.998  0.1191 -0.3935 -0.1695
 1895SOL     OW 7577   1.044   2.840   3.524 -0.1096  0.1603  0.1637
 1895SOL    HW1 7578   1.060   2.895   3.600  2.2452 -0.9508  0.5248
 1895SOL    HW2 7579   1.008   2.759   3.559  1.8010 -0.6964  0.2442
 1895SOL     MW 7580   1.041   2.837   3.538  0.4364 -0.0916  0.2202
 1896SOL     OW 7581   1.867   0.531   2.055 -0.2478 -0.3346 -0.0299
 1896SOL    HW1 7582   1.907   0.611   2.021 -0.3754 -0.2659 -0.0195
 1896SOL    HW2 7583   1.848   0.479   1.977 -0.2355 -0.3209 -0.0421
 1896SOL     MW 7584   1.870   0.535   2.040 -0.2626 -0.3241 -0.0301
 1897SOL     OW 7585   4.510   4.838   0.043  0.0991 -0.0899 -0.0880
 1897SOL    HW1 7586   4.519   4.744   0.057  0.0576  0.0010  0.5423
 1897SOL    HW2 7587   4.493   4.874   0.129 -1.5269  0.3052 -0.5314
 1897SOL     MW 7588   4.509   4.831   0.056 -0.1143 -0.0277 -0.0641
 1898SOL     OW 7589   4.471   2.604   3.533 -0.0211 -0.2403  0.2735
 1898SOL    HW1 7590   4.406   2.673   3.520 -1.0007 -0.9919  0.9619
 1898SOL    HW2 7591   4.516   2.596   3.449 -0.9754  0.1475 -0.2860
 1898SOL     MW 7592   4.468   2.612   3.521 -0.2687 -0.2868  0.2900
 1899SOL     OW 7593   2.767   1.501   4.375  0.0122 -0.3388  0.0131
 1899SOL    HW1 7594   2.851   1.506   4.330 -0.2946 -0.2830 -0.5521
 1899SOL    HW2 7595   2.762   1.581   4.427  1.6937 -1.7124  2.5110
 1899SOL     MW 7596   2.777   1.512   4.376  0.1882 -0.5075  0.2605
 1900SOL     OW 7597   5.440   0.236   0.140  0.2893 -0.1234  0.0292
 1900SOL    HW1 7598   5.494   0.163   0.107  1.0358 -0.2467  1.4334
 1900SOL    HW2 7599   5.354   0.221   0.102  0.6153 -1.3548 -0.2777
 1900SOL     MW 7600   5.436   0.224   0.131  0.4266 -0.2968  0.1697
 1901SOL     OW 7601   0.250   4.537   1.957 -0.4178 -0.1769  0.2905
 1901SOL    HW1 7602   0.307   4.491   1.895 -0.1972  1.2321 -0.5946
 1901SOL    HW2 7603   0.200   4.598   1.903 -1.7455 -0.3726  1.2521
 1901SOL     MW 7604   0.251   4.539   1.942 -0.5595 -0.0216  0.3003
 1902SOL     OW 7605   2.416   0.194   1.939  0.4299 -0.0613  0.5855
 1902SOL    HW1 7606   2.361   0.115   1.938  1.3471 -0.7203  0.2206
 1902SOL    HW2 7607   2.395   0.237   2.022 -0.4574 -0.4145  0.5603
 1902SOL     MW 7608   2.406   0.189   1.949  0.4338 -0.1909  0.5356
 1903SOL     OW 7609   5.477   2.010   2.670  0.3885 -0.0430 -0.1928
 1903SOL    HW1 7610   5.484   2.097   2.630  2.1677  0.1218  0.3929
 1903SOL    HW2 7611   5.421   2.024   2.746  0.6749  0.6015 -0.0931
 1903SOL     MW 7612   5.471   2.023   2.675  0.6529  0.0606 -0.1051
 1904SOL     OW 7613   2.667   1.369   0.810 -0.1316  0.2066  0.1265
 1904SOL    HW1 7614   2.619   1.402   0.886  0.7356 -2.2461  1.8537
 1904SOL    HW2 7615   2.604   1.370   0.739 -1.0465  2.3293  0.9110
 1904SOL     MW 7616   2.653   1.373   0.810 -0.1377  0.1644  0.4480
 1905SOL     OW 7617   0.350   0.207   0.333 -0.0403  0.1476  0.0706
 1905SOL    HW1 7618   0.264   0.181   0.367  0.6528  0.1384  1.9496
 1905SOL    HW2 7619   0.382   0.130   0.287 -0.4147 -0.3905  0.6907
 1905SOL     MW 7620   0.343   0.194   0.332  0.0005  0.0775  0.3905
 1906SOL     OW 7621   5.080   1.720   0.416 -0.2561 -0.3009 -0.1533
 1906SOL    HW1 7622   5.092   1.676   0.501  0.1800 -1.1206 -0.6309
 1906SOL    HW2 7623   5.005   1.778   0.430 -0.8454 -1.1946  0.4906
 1906SOL     MW 7624   5.072   1.722   0.429 -0.2757 -0.5203 -0.1320
 1907SOL     OW 7625   0.362   0.860   3.283  0.2000  0.5164  0.4117
 1907SOL    HW1 7626   0.351   0.842   3.377  0.0245  0.5365  0.3966
 1907SOL    HW2 7627   0.431   0.801   3.255 -0.3607 -0.1324  0.3677
 1907SOL     MW 7628   0.369   0.850   3.292  0.1058  0.4359  0.4041
 1908SOL     OW 7629   4.996   4.869   2.185  0.4918  0.2026 -0.2623
 1908SOL    HW1 7630   4.984   4.775   2.192 -0.5458  0.2530 -1.1405
 1908SOL    HW2 7631   4.911   4.907   2.207  0.9027  0.9410  0.1074
 1908SOL     MW 7632   4.984   4.862   2.188  0.4116  0.3036 -0.3274
 1909SOL     OW 7633   2.354   4.458   1.286  0.0839 -0.4627  0.1643
 1909SOL    HW1 7634   2.438   4.499   1.263 -0.6066 -0.3027 -2.3205
 1909SOL    HW2 7635   2.290   4.528   1.280 -0.4767 -0.9439  0.3957
 1909SOL     MW 7636   2.357   4.472   1.283 -0.0762 -0.5038 -0.1242
 1910SOL     OW 7637   0.594   3.224   3.969 -0.3672  0.3592  0.3949
 1910SOL    HW1 7638   0.523   3.248   3.909  0.1405 -0.9228 -0.7440
 1910SOL    HW2 7639   0.558   3.153   4.022  0.6311 -1.6296 -1.4774
 1910SOL     MW 7640   0.580   3.218   3.968 -0.1744 -0.0595  0.0094
 1911SOL     OW 7641   2.743   1.033   0.993 -0.4052  0.2362  0.2194
 1911SOL    HW1 7642   2.721   1.020   0.900 -2.2689 -0.9759  0.7764
 1911SOL    HW2 7643   2.780   1.121   0.996 -0.8049  0.5190 -1.5965
 1911SOL     MW 7644   2.745   1.043   0.981 -0.6949  0.1173  0.0582
 1912SOL     OW 7645   4.656   3.049   2.329 -0.2220  0.7320  0.2283
 1912SOL    HW1 7646   4.626   2.965   2.364  0.4965  0.4596  0.2110
 1912SOL    HW2 7647   4.605   3.114   2.376 -0.3837  0.3070  0.6525
 1912SOL     MW 7648   4.646   3.046   2.339 -0.1507  0.6427  0.2804
 1913SOL     OW 7649   3.031   3.145   3.762 -0.1354  0.3288  0.2084
 1913SOL    HW1 7650   3.077   3.080   3.815 -1.2957 -1.2218 -0.6159
 1913SOL    HW2 7651   3.000   3.097   3.686 -0.5330  1.9940 -0.7327
 1913SOL     MW 7652   3.032   3.130   3.759 -0.3348  0.3434 -0.0176
 1914SOL     OW 7653   3.599   5.184   2.167  0.0793 -0.2763  0.1774
 1914SOL    HW1 7654   3.637   5.212   2.083 -0.0484 -1.9724 -0.4862
 1914SOL    HW2 7655   3.505   5.189   2.153 -0.0062  1.9164  1.1282
 1914SOL     MW 7656   3.592   5.188   2.154  0.0520 -0.2128  0.2142
 1915SOL     OW 7657   3.809   0.736   5.387 -0.2344 -0.1614  0.0067
 1915SOL    HW1 7658   3.759   0.703   5.461 -1.2826 -1.9376 -1.4175
 1915SOL    HW2 7659   3.754   0.720   5.311  1.2892  0.5177 -1.3074
 1915SOL     MW 7660   3.796   0.729   5.387 -0.1736 -0.3018 -0.3438
 1916SOL     OW 7661   2.131   3.569   0.179  0.0727 -0.0245 -0.2954
 1916SOL    HW1 7662   2.203   3.558   0.241 -0.0285  0.6305 -0.0499
 1916SOL    HW2 7663   2.141   3.497   0.117 -0.8443 -1.7898  1.4730
 1916SOL     MW 7664   2.141   3.558   0.179 -0.0577 -0.1666 -0.0376
 1917SOL     OW 7665   4.352   0.453   3.881  0.4171  0.0598  0.6378
 1917SOL    HW1 7666   4.365   0.548   3.878  1.3100 -0.0323  1.2453
 1917SOL    HW2 7667   4.275   0.438   3.825 -0.3339  1.2398  1.3050
 1917SOL     MW 7668   4.344   0.463   3.873  0.4353  0.1991  0.8010
 1918SOL     OW 7669   3.695   4.342   1.237  0.2692  0.3121  0.5347
 1918SOL    HW1 7670   3.647   4.293   1.170  0.3624 -0.1573  0.8105
 1918SOL    HW2 7671   3.629   4.400   1.276  0.0775  0.1501  0.4524
 1918SOL     MW 7672   3.680   4.343   1.234  0.2566  0.2313  0.5594
 1919SOL     OW 7673   0.603   1.614   1.361 -0.3971  0.1007  0.4502
 1919SOL    HW1 7674   0.639   1.529   1.336  0.5493  0.9804 -1.3675
 1919SOL    HW2 7675   0.671   1.655   1.414 -0.7240 -0.1490  1.0648
 1919SOL     MW 7676   0.616   1.609   1.364 -0.3178  0.1814  0.2962
 1920SOL     OW 7677   0.375   1.819   1.675  0.3716  0.2884 -0.1906
 1920SOL    HW1 7678   0.301   1.800   1.733 -0.4428  2.0786 -0.5910
 1920SOL    HW2 7679   0.397   1.734   1.636  0.1096 -0.7139  1.7435
 1920SOL     MW 7680   0.369   1.805   1.677  0.2338  0.3893  0.0058
 1921SOL     OW 7681   2.547   3.164   2.814 -0.1323 -0.8954  0.7785
 1921SOL    HW1 7682   2.616   3.133   2.873  1.7754 -0.5592 -1.1508
 1921SOL    HW2 7683   2.479   3.197   2.873  2.7844  2.0591  2.9485
 1921SOL     MW 7684   2.547   3.164   2.829  0.4853 -0.4742  0.8093
 1922SOL     OW 7685   3.501   5.395   1.190 -0.0007  0.1962 -0.1725
 1922SOL    HW1 7686   3.533   5.484   1.175  1.3986 -0.0041  1.4105
 1922SOL    HW2 7687   3.525   5.347   1.111  0.0285  1.0014 -0.6627
 1922SOL     MW 7688   3.508   5.400   1.178  0.1822  0.2737 -0.0326
 1923SOL     OW 7689   0.973   3.301   0.280 -0.6239 -0.3552  0.0495
 1923SOL    HW1 7690   0.929   3.384   0.265 -0.8583  0.5249  4.3883
 1923SOL    HW2 7691   0.910   3.235   0.253 -1.6284  0.8424 -0.6472
 1923SOL     MW 7692   0.960   3.303   0.274 -0.7825 -0.0892  0.5158
 1924SOL     OW 7693   1.915   1.352   0.942  0.2664  0.2482 -0.4069
 1924SOL    HW1 7694   1.908   1.445   0.961 -0.1766 -0.1162  1.4081
 1924SOL    HW2 7695   2.008   1.332   0.952  0.0303  0.0198  1.9281
 1924SOL     MW 7696   1.926   1.361   0.946  0.1795  0.1724  0.1243
 1925SOL     OW 7697   4.460   3.426   1.734 -0.1277  0.0903 -0.2109
 1925SOL    HW1 7698   4.436   3.456   1.822 -0.9422 -2.0908  0.3753
 1925SOL    HW2 7699   4.532   3.365   1.749  1.8556  1.9857 -1.4061
 1925SOL     MW 7700   4.466   3.422   1.747  0.0219  0.0537 -0.2888
 1926SOL     OW 7701   0.598   5.356   0.433 -0.7819  0.5746 -0.0895
 1926SOL    HW1 7702   0.525   5.392   0.483 -1.6242  0.1108 -0.9426
 1926SOL    HW2 7703   0.650   5.432   0.408  0.1803  0.7531  2.1993
 1926SOL     MW 7704   0.595   5.370   0.436 -0.7665  0.5381  0.0943
 1927SOL     OW 7705   2.263   1.114   2.720 -0.1238  0.6185 -0.1495
 1927SOL    HW1 7706   2.196   1.169   2.762 -0.0053  0.6705 -0.0296
 1927SOL    HW2 7707   2.336   1.173   2.704  0.5861  0.1857  1.3189
 1927SOL     MW 7708   2.263   1.128   2.723 -0.0177  0.5697  0.0538
 1928SOL     OW 7709   3.604   3.079   5.471  0.2217 -0.1923 -0.0038
 1928SOL    HW1 7710   3.581   2.992   5.504  1.0242 -0.5804 -0.4185
 1928SOL    HW2 7711   3.673   3.062   5.406  1.2256  0.8416  0.7507
 1928SOL     MW 7712   3.610   3.066   5.467  0.4529 -0.1096  0.0397
 1929SOL     OW 7713   0.362   0.335   0.878  0.3146 -0.1249  0.7155
 1929SOL    HW1 7714   0.376   0.394   0.804  0.7779 -0.6588  0.3635
 1929SOL    HW2 7715   0.375   0.390   0.955  1.1677  0.1499  0.3915
 1929SOL     MW 7716   0.366   0.350   0.878  0.4831 -0.1580  0.6289
 1930SOL     OW 7717   1.284   2.200   5.071 -0.1556  0.1687 -0.2530
 1930SOL    HW1 7718   1.240   2.285   5.073 -2.1333 -0.7653 -0.9551
 1930SOL    HW2 7719   1.241   2.153   4.999  1.8351 -0.9553 -0.7743
 1930SOL     MW 7720   1.273   2.205   5.062 -0.1539 -0.0948 -0.4096
 1931SOL     OW 7721   2.826   3.728   2.790  0.2262 -0.0397  0.2927
 1931SOL    HW1 7722   2.756   3.751   2.730 -1.5557 -0.2605  2.1650
 1931SOL    HW2 7723   2.872   3.655   2.748 -1.7494 -1.0230 -0.2726
 1931SOL     MW 7724   2.823   3.722   2.777 -0.2548 -0.1938  0.4600
 1932SOL     OW 7725   4.031   4.284   1.632  0.0885 -0.0257 -0.5856
 1932SOL    HW1 7726   4.030   4.203   1.683  1.6862  1.3705  1.8476
 1932SOL    HW2 7727   4.120   4.317   1.642 -0.1767  1.4554 -2.5321
 1932SOL     MW 7728   4.042   4.278   1.640  0.2591  0.3426 -0.5233
 1933SOL     OW 7729   2.997   1.374   2.603 -0.4704 -0.7177  0.2101
 1933SOL    HW1 7730   3.010   1.281   2.619  0.0247 -0.7628 -0.3898
 1933SOL    HW2 7731   2.914   1.395   2.646 -1.0404 -1.6326 -0.4058
 1933SOL     MW 7732   2.988   1.365   2.610 -0.4800 -0.8405  0.0545
 1934SOL     OW 7733   2.159   1.742   2.887 -0.7703  0.0091 -0.2003
 1934SOL    HW1 7734   2.123   1.814   2.834 -2.3462  0.0188  0.8051
 1934SOL    HW2 7735   2.231   1.781   2.936 -0.6663  0.5249 -0.7532
 1934SOL     MW 7736   2.163   1.756   2.886 -0.9587  0.0764 -0.1424
 1935SOL     OW 7737   1.672   1.697   2.003 -0.5415  0.2888 -0.0537
 1935SOL    HW1 7738   1.758   1.736   2.018 -0.2509  0.1367 -1.2125
 1935SOL    HW2 7739   1.686   1.603   2.013 -0.0520  0.0593 -2.2898
 1935SOL     MW 7740   1.685   1.690   2.006 -0.4416  0.2400 -0.4883
 1936SOL     OW 7741   0.869   3.242   0.627  0.2465  0.2036 -0.3306
 1936SOL    HW1 7742   0.939   3.214   0.569  0.3403  0.6191 -0.4266
 1936SOL    HW2 7743   0.874   3.184   0.703  0.3257 -0.1353 -0.5970
 1936SOL     MW 7744   0.879   3.231   0.629  0.2686  0.2134 -0.3770
 1937SOL     OW 7745   0.040   1.167   3.089 -0.2674  0.1703  0.2924
 1937SOL    HW1 7746   0.054   1.085   3.137 -1.1234  0.9749  2.0027
 1937SOL    HW2 7747  -0.055   1.179   3.090 -0.2750  0.4398 -1.2785
 1937SOL     MW 7748   0.030   1.158   3.095 -0.3779  0.3078  0.3103
 1938SOL     OW 7749   2.267   3.611   4.959  0.1418 -0.7522  0.0887
 1938SOL    HW1 7750   2.240   3.674   4.892 -0.8034 -0.4487  0.7267
 1938SOL    HW2 7751   2.214   3.633   5.035 -0.7383 -2.7686  0.1250
 1938SOL     MW 7752   2.257   3.622   4.960 -0.0918 -0.9715  0.1750
 1939SOL     OW 7753   5.341   2.593   0.701  0.1002 -0.0763 -0.0016
 1939SOL    HW1 7754   5.247   2.588   0.688  0.2147  0.4846 -1.1457
 1939SOL    HW2 7755   5.374   2.507   0.675 -0.0318 -0.0724 -0.1803
 1939SOL     MW 7756   5.333   2.582   0.696  0.0980 -0.0040 -0.1709
 1940SOL     OW 7757   4.893   0.637   4.582  0.4469 -0.7875  0.6916
 1940SOL    HW1 7758   4.813   0.666   4.538  1.4621  1.7706  0.3493
 1940SOL    HW2 7759   4.869   0.632   4.674  0.2391  1.5956  0.8223
 1940SOL     MW 7760   4.880   0.640   4.588  0.5503 -0.1550  0.6645
 1941SOL     OW 7761   1.770   3.943   3.398  0.1010 -0.1208  0.2594
 1941SOL    HW1 7762   1.679   3.927   3.371  0.0748  0.5036 -0.0365
 1941SOL    HW2 7763   1.765   4.018   3.457  0.5526  0.7331 -0.7407
 1941SOL     MW 7764   1.758   3.950   3.402  0.1555  0.0684  0.0935
 1942SOL     OW 7765   4.444   3.346   1.279 -0.3414 -0.2850  0.7721
 1942SOL    HW1 7766   4.434   3.441   1.289 -0.4967 -0.0750 -0.9876
 1942SOL    HW2 7767   4.493   3.336   1.197  1.5878 -1.6889  1.9933
 1942SOL     MW 7768   4.449   3.357   1.269 -0.1143 -0.4378  0.7031
 1943SOL     OW 7769   1.165   2.760   1.764  0.0913 -0.0338 -0.2454
 1943SOL    HW1 7770   1.176   2.854   1.773 -0.6596  0.1284 -0.9263
 1943SOL    HW2 7771   1.152   2.728   1.853  3.1476  0.1020  0.3453
 1943SOL     MW 7772   1.165   2.768   1.777  0.3864  0.0043 -0.2570
 1944SOL     OW 7773   5.153   3.275   3.901  0.0542 -0.1664 -0.0437
 1944SOL    HW1 7774   5.162   3.180   3.895 -1.1776 -0.3838  1.1042
 1944SOL    HW2 7775   5.098   3.289   3.978  0.5401  1.5036  0.0296
 1944SOL     MW 7776   5.147   3.265   3.910 -0.0413  0.0195  0.1126
 1945SOL     OW 7777   2.854   5.022   0.035 -0.0673 -0.8996  0.0540
 1945SOL    HW1 7778   2.821   5.026  -0.055  3.0083 -1.2765 -1.2200
 1945SOL    HW2 7779   2.910   4.944   0.036  1.2950  0.0369  1.7971
 1945SOL     MW 7780   2.857   5.012   0.024  0.5008 -0.8280  0.1140
 1946SOL     OW 7781   4.487   2.131   5.248 -0.2382  0.0310 -0.6314
 1946SOL    HW1 7782   4.471   2.051   5.298  0.7678 -0.2489 -0.7181
 1946SOL    HW2 7783   4.579   2.123   5.220 -0.9368 -0.1997 -3.1418
 1946SOL     MW 7784   4.497   2.120   5.251 -0.1989 -0.0344 -0.9639
 1947SOL     OW 7785   4.578   4.174   3.043  0.4569 -0.0505 -0.3960
 1947SOL    HW1 7786   4.663   4.141   3.071  0.0165 -0.8372  0.0199
 1947SOL    HW2 7787   4.582   4.268   3.062  0.9793 -0.1955  0.2486
 1947SOL     MW 7788   4.590   4.182   3.049  0.4674 -0.1698 -0.2602
 1948SOL     OW 7789   3.663   3.883   3.338  0.0432  0.1974  0.4934
 1948SOL    HW1 7790   3.632   3.831   3.412  0.1315  1.0124  1.1110
 1948SOL    HW2 7791   3.584   3.908   3.291 -0.1499  1.1638  1.3165
 1948SOL     MW 7792   3.649   3.879   3.341  0.0298  0.4254  0.6779
 1949SOL     OW 7793   5.366   4.185   3.653 -0.2545 -0.3565  0.3748
 1949SOL    HW1 7794   5.461   4.178   3.650  0.0030  1.0873  2.7837
 1949SOL    HW2 7795   5.346   4.262   3.600  0.0387  0.1054  0.9371
 1949SOL     MW 7796   5.376   4.194   3.646 -0.1840 -0.1126  0.7551
 1950SOL     OW 7797   0.754   2.877   1.269  0.0531 -0.6242  0.1955
 1950SOL    HW1 7798   0.760   2.961   1.224  1.7472 -0.2667  1.0171
 1950SOL    HW2 7799   0.688   2.828   1.220 -2.2306  1.7452  0.6596
 1950SOL     MW 7800   0.746   2.881   1.257 -0.0224 -0.2752  0.3601
 1951SOL     OW 7801   1.049   3.574   3.106 -0.6158 -0.0724 -0.1461
 1951SOL    HW1 7802   1.122   3.530   3.064 -1.3029 -1.0325 -0.3513
 1951SOL    HW2 7803   1.069   3.667   3.096  0.4967 -0.3107 -0.3217
 1951SOL     MW 7804   1.061   3.581   3.100 -0.5613 -0.2258 -0.1949
 1952SOL     OW 7805   4.491   0.203   5.427 -0.2109  0.2980 -0.5385
 1952SOL    HW1 7806   4.464   0.293   5.440 -0.3282  0.2871 -0.6888
 1952SOL    HW2 7807   4.408   0.154   5.422 -0.1559  0.2186 -0.6970
 1952SOL     MW 7808   4.477   0.208   5.428 -0.2189  0.2865 -0.5780
 1953SOL     OW 7809   4.308   2.643   1.417 -0.0335 -0.4709 -0.2105
 1953SOL    HW1 7810   4.213   2.634   1.410 -0.1516  0.3878  0.1650
 1953SOL    HW2 7811   4.322   2.737   1.429  0.8027 -0.6724  0.4954
 1953SOL     MW 7812   4.297   2.653   1.418  0.0584 -0.3867 -0.0721
 1954SOL     OW 7813   4.050   3.180   1.423 -0.0241  0.2799 -0.0661
 1954SOL    HW1 7814   4.097   3.227   1.492  0.3985 -1.9222  1.2550
 1954SOL    HW2 7815   3.959   3.210   1.431 -0.2136 -0.6907  2.2410
 1954SOL     MW 7816   4.044   3.190   1.433  0.0057 -0.1262  0.3983
 1955SOL     OW 7817   0.088   5.220   5.379  0.2364 -0.0845  0.6845
 1955SOL    HW1 7818   0.018   5.156   5.366  0.2431 -0.5315  2.5036
 1955SOL    HW2 7819   0.167   5.167   5.393  0.4165  0.3283  1.2938
 1955SOL     MW 7820   0.090   5.205   5.379  0.2603 -0.0889  0.9954
 1956SOL     OW 7821   4.766   2.755   1.322  0.4616 -0.6849  0.2382
 1956SOL    HW1 7822   4.712   2.677   1.311 -0.0555 -0.3753  0.5346
 1956SOL    HW2 7823   4.737   2.814   1.252 -1.5661  0.5786  2.0437
 1956SOL     MW 7824   4.756   2.753   1.311  0.1359 -0.4835  0.5073
 1957SOL     OW 7825   2.618   2.617   4.795  0.2610  0.0700  0.0849
 1957SOL    HW1 7826   2.676   2.581   4.728  0.9530 -1.8701  1.6149
 1957SOL    HW2 7827   2.644   2.709   4.802  1.3381 -0.1080 -1.0944
 1957SOL     MW 7828   2.629   2.624   4.787  0.4874 -0.2012  0.1298
 1958SOL     OW 7829   3.412   4.571   1.108  0.0384 -0.3708 -0.1653
 1958SOL    HW1 7830   3.338   4.525   1.066 -0.6006  0.2290  0.2808
 1958SOL    HW2 7831   3.386   4.663   1.106  1.5302  0.0672 -1.5089
 1958SOL     MW 7832   3.399   4.577   1.102  0.1475 -0.2380 -0.2802
 1959SOL     OW 7833   3.807   1.588   0.642  0.5725  0.1789  0.1304
 1959SOL    HW1 7834   3.877   1.600   0.578 -0.2645 -0.9435 -1.0324
 1959SOL    HW2 7835   3.841   1.524   0.704  0.5889 -0.3449 -0.4188
 1959SOL     MW 7836   3.820   1.582   0.642  0.4674 -0.0318 -0.0887
 1960SOL     OW 7837   2.689   5.341   3.994  0.0189  0.4184 -0.2778
 1960SOL    HW1 7838   2.690   5.246   4.008  0.3459  0.2552 -1.3458
 1960SOL    HW2 7839   2.776   5.369   4.020 -0.1583  0.4769  0.2801
 1960SOL     MW 7840   2.700   5.332   3.999  0.0381  0.4050 -0.3431
 1961SOL     OW 7841   4.021   5.042   2.690 -0.2538 -0.1707  0.0574
 1961SOL    HW1 7842   3.940   4.997   2.714  0.0287 -0.3896  0.6259
 1961SOL    HW2 7843   4.091   4.983   2.720  0.1536 -1.1022 -2.4778
 1961SOL     MW 7844   4.020   5.029   2.697 -0.1655 -0.3179 -0.1944
 1962SOL     OW 7845   4.826   4.410   4.856 -0.1967 -0.3581  0.1835
 1962SOL    HW1 7846   4.740   4.369   4.861  0.1886 -1.4312 -1.3374
 1962SOL    HW2 7847   4.816   4.493   4.903 -1.7112 -1.0186  1.0783
 1962SOL     MW 7848   4.814   4.416   4.863 -0.3412 -0.5800  0.1034
 1963SOL     OW 7849   3.340   2.806   4.386  0.2078 -0.0641  0.9829
 1963SOL    HW1 7850   3.273   2.852   4.437  0.2280  1.1677 -0.0481
 1963SOL    HW2 7851   3.423   2.845   4.415  0.2291  0.5567  0.1178
 1963SOL     MW 7852   3.342   2.817   4.396  0.2131  0.1731  0.7402
 1964SOL     OW 7853   3.669   5.280   1.910  0.4560  0.3071 -0.0616
 1964SOL    HW1 7854   3.618   5.344   1.860 -0.9704 -1.1078 -0.5092
 1964SOL    HW2 7855   3.757   5.317   1.914  0.0753  1.5093 -1.7312
 1964SOL     MW 7856   3.673   5.293   1.904  0.2247  0.2799 -0.3326
 1965SOL     OW 7857   2.058   4.461   4.585 -0.1031  0.3337 -0.1589
 1965SOL    HW1 7858   2.101   4.523   4.644  1.3265 -1.9412  1.3517
 1965SOL    HW2 7859   1.973   4.501   4.566  1.0559  3.1189 -0.0008
 1965SOL     MW 7860   2.052   4.474   4.590  0.2283  0.3991  0.0547
 1966SOL     OW 7861   4.894   1.959   1.481  0.5234 -0.4272  0.3634
 1966SOL    HW1 7862   4.959   1.889   1.482 -0.6964 -1.7494 -2.3016
 1966SOL    HW2 7863   4.936   2.030   1.433  0.8050 -0.3943  0.6603
 1966SOL     MW 7864   4.907   1.959   1.475  0.4033 -0.5923  0.0603
 1967SOL     OW 7865   0.479   4.402   0.868 -1.2649  0.0929 -0.0297
 1967SOL    HW1 7866   0.438   4.356   0.941  0.8633 -1.2650  0.3964
 1967SOL    HW2 7867   0.495   4.490   0.902  0.5079 -0.7569  1.5712
 1967SOL     MW 7868   0.476   4.407   0.882 -0.7656 -0.1897  0.2298
 1968SOL     OW 7869   1.345   0.924   2.342 -0.2456 -0.3531  0.0251
 1968SOL    HW1 7870   1.435   0.920   2.376 -0.4312 -1.0366  0.4512
 1968SOL    HW2 7871   1.293   0.879   2.408 -0.6266 -1.7078 -1.1615
 1968SOL     MW 7872   1.350   0.918   2.355 -0.3181 -0.6140 -0.0722
 1969SOL     OW 7873   4.120   3.763   3.076 -0.2311 -0.7128 -0.6124
 1969SOL    HW1 7874   4.158   3.723   3.155  0.0783  1.5080  0.4553
 1969SOL    HW2 7875   4.058   3.827   3.109  2.6904  3.1643 -1.8211
 1969SOL     MW 7876   4.117   3.766   3.090  0.1825  0.0678 -0.6305
 1970SOL     OW 7877   1.336   1.216   3.933  0.3334  0.0246 -0.0752
 1970SOL    HW1 7878   1.316   1.165   4.011 -0.0461  2.0381  1.2311
 1970SOL    HW2 7879   1.414   1.266   3.957  0.1805  0.7106 -0.9613
 1970SOL     MW 7880   1.343   1.216   3.946  0.2653  0.3702 -0.0214
 1971SOL     OW 7881   1.763   4.217   2.621  0.1769 -0.1421  0.1528
 1971SOL    HW1 7882   1.668   4.222   2.610  0.2570  0.3858 -0.3649
 1971SOL    HW2 7883   1.787   4.304   2.653  0.2877 -0.8026  2.0032
 1971SOL     MW 7884   1.754   4.229   2.624  0.2013 -0.1590  0.3234
 1972SOL     OW 7885   0.238   0.897   0.603  0.4047  0.1398  0.1700
 1972SOL    HW1 7886   0.269   0.816   0.645  0.9381  0.1193 -0.2639
 1972SOL    HW2 7887   0.258   0.885   0.510  1.7705  1.3514  0.2816
 1972SOL     MW 7888   0.244   0.885   0.597  0.6478  0.2923  0.1287
 1973SOL     OW 7889   4.828   1.486   4.618  0.3467  0.5782 -0.0129
 1973SOL    HW1 7890   4.847   1.396   4.644 -1.0496  0.1228 -0.5141
 1973SOL    HW2 7891   4.884   1.539   4.674  0.6173 -0.5712  0.8330
 1973SOL     MW 7892   4.838   1.482   4.628  0.2026  0.3727  0.0313
 1974SOL     OW 7893   0.948   3.055   4.978  0.5024  0.8226 -0.6625
 1974SOL    HW1 7894   0.964   3.064   5.072  0.0332  0.4802 -0.5486
 1974SOL    HW2 7895   0.970   2.964   4.958 -0.5939  0.5434 -0.6417
 1974SOL     MW 7896   0.953   3.045   4.987  0.3020  0.7430 -0.6453
 1975SOL     OW 7897   3.176   4.103   5.045  0.1875 -0.4725  0.0612
 1975SOL    HW1 7898   3.175   4.087   4.951  1.5542 -2.7121  0.3562
 1975SOL    HW2 7899   3.084   4.092   5.072 -0.3146  0.7400 -1.0339
 1975SOL     MW 7900   3.164   4.100   5.036  0.2982 -0.6040 -0.0412
 1976SOL     OW 7901   1.305   0.330   3.547  0.3392 -0.2640 -0.5985
 1976SOL    HW1 7902   1.219   0.353   3.581 -0.3466 -1.1404 -1.6443
 1976SOL    HW2 7903   1.313   0.236   3.565  0.3370 -0.5518 -2.0145
 1976SOL     MW 7904   1.295   0.321   3.554  0.2511 -0.4130 -0.9136
 1977SOL     OW 7905   2.638   5.351   4.505 -0.2870 -0.3531 -0.1155
 1977SOL    HW1 7906   2.600   5.395   4.581 -1.6107  1.0054 -1.4923
 1977SOL    HW2 7907   2.648   5.420   4.439  3.3352 -0.9193 -0.3586
 1977SOL     MW 7908   2.634   5.365   4.506  0.0072 -0.2516 -0.3229
 1978SOL     OW 7909   3.664   3.965   1.167 -0.1341 -0.2904 -0.6012
 1978SOL    HW1 7910   3.609   3.904   1.118 -1.8429  0.4221  0.3455
 1978SOL    HW2 7911   3.623   4.050   1.154  0.4990  0.2022  0.4927
 1978SOL     MW 7912   3.652   3.968   1.159 -0.2718 -0.1361 -0.3400
 1979SOL     OW 7913   3.549   2.665   0.717 -0.7239 -0.1701  0.2284
 1979SOL    HW1 7914   3.455   2.676   0.729 -0.9354 -2.2030  0.7976
 1979SOL    HW2 7915   3.556   2.604   0.643  0.1991  0.9343 -0.6302
 1979SOL     MW 7916   3.538   2.658   0.709 -0.6328 -0.2889  0.1914
 1980SOL     OW 7917   0.225   4.675   2.180 -0.4418 -0.6945  0.1981
 1980SOL    HW1 7918   0.245   4.608   2.115 -1.9794 -1.9734  0.9681
 1980SOL    HW2 7919   0.171   4.738   2.134  0.7398 -0.1100 -0.4437
 1980SOL     MW 7920   0.221   4.675   2.166 -0.4874 -0.7834  0.2145
 1981SOL     OW 7921   4.731   1.807   4.891  0.3025  0.2846  0.0494
 1981SOL    HW1 7922   4.683   1.729   4.866 -0.0042  0.0750  1.2415
 1981SOL    HW2 7923   4.665   1.877   4.891  0.3021  0.2828  0.2933
 1981SOL     MW 7924   4.716   1.806   4.888  0.2632  0.2575  0.2333
 1982SOL     OW 7925   0.487   3.521   4.990 -0.4493 -0.1346  0.3844
 1982SOL    HW1 7926   0.467   3.613   5.001  0.7912  0.2611 -0.4025
 1982SOL    HW2 7927   0.422   3.475   5.043 -1.8019  1.1314 -0.1278
 1982SOL     MW 7928   0.476   3.527   4.998 -0.4636  0.0781  0.2181
 1983SOL     OW 7929   1.025   3.998   0.579 -0.2112 -0.0935 -0.8826
 1983SOL    HW1 7930   1.055   3.909   0.597  2.9702  0.9507 -0.3020
 1983SOL    HW2 7931   0.938   4.003   0.617 -0.5003 -2.9292 -0.9727
 1983SOL     MW 7932   1.018   3.987   0.586  0.1591 -0.3229 -0.8198
 1984SOL     OW 7933   1.294   2.219   1.675  0.1611  0.4732 -0.2689
 1984SOL    HW1 7934   1.208   2.191   1.644 -0.0713 -0.2342  0.9806
 1984SOL    HW2 7935   1.292   2.315   1.665 -1.6360  0.7273  1.7743
 1984SOL     MW 7936   1.283   2.228   1.670 -0.0987  0.4152  0.1526
 1985SOL     OW 7937   0.805   1.177   2.983  0.2976  0.0238 -0.7352
 1985SOL    HW1 7938   0.745   1.251   2.973  0.8807  0.5649 -0.3227
 1985SOL    HW2 7939   0.753   1.109   3.025 -0.1614  0.3111 -0.8368
 1985SOL     MW 7940   0.791   1.178   2.987  0.3135  0.1299 -0.6954
 1986SOL     OW 7941   1.785   4.089   3.153 -0.2555 -0.0189  0.0908
 1986SOL    HW1 7942   1.809   4.019   3.214  0.1180 -0.3623 -0.4373
 1986SOL    HW2 7943   1.736   4.152   3.206 -1.0758 -0.9433  0.4567
 1986SOL     MW 7944   1.782   4.088   3.168 -0.3127 -0.1812  0.0700
 1987SOL     OW 7945   2.085   3.379   3.541 -0.1293  0.7179  0.2725
 1987SOL    HW1 7946   2.023   3.451   3.554  0.3597  0.8152  2.4938
 1987SOL    HW2 7947   2.154   3.395   3.606  0.1078 -1.6194  0.6754
 1987SOL     MW 7948   2.086   3.391   3.551 -0.0363  0.4312  0.6085
 1988SOL     OW 7949   0.222   2.276   2.773  0.4944  0.0513 -0.8207
 1988SOL    HW1 7950   0.301   2.262   2.722 -0.7275 -0.3417 -2.7110
 1988SOL    HW2 7951   0.212   2.371   2.778  1.3187  0.1055 -0.1794
 1988SOL     MW 7952   0.231   2.286   2.767  0.4435  0.0079 -0.9806
 1989SOL     OW 7953   1.644   5.305   3.754 -0.1424 -0.2942 -0.2360
 1989SOL    HW1 7954   1.693   5.261   3.685 -0.5911 -1.6664  0.2902
 1989SOL    HW2 7955   1.575   5.243   3.777  0.1374  0.0218  1.5931
 1989SOL     MW 7956   1.642   5.291   3.748 -0.1640 -0.4294  0.0655
 1990SOL     OW 7957   4.852   1.115   1.377 -0.0649 -0.1977 -0.7302
 1990SOL    HW1 7958   4.896   1.042   1.420  0.3557  0.3575 -0.1939
 1990SOL    HW2 7959   4.918   1.152   1.318  1.0652  2.0362  1.6964
 1990SOL     MW 7960   4.866   1.111   1.375  0.1336  0.1594 -0.3509
 1991SOL     OW 7961   5.210   0.438   4.386  0.1019  0.0159 -0.5892
 1991SOL    HW1 7962   5.224   0.489   4.307 -1.9730 -1.0172 -1.6922
 1991SOL    HW2 7963   5.259   0.357   4.372  0.5607  0.2501 -0.3586
 1991SOL     MW 7964   5.218   0.434   4.374 -0.1050 -0.0863 -0.7009
 1992SOL     OW 7965   3.199   1.243   3.609  0.3932 -0.2334 -0.2002
 1992SOL    HW1 7966   3.215   1.257   3.516  3.5689 -0.6690  0.1697
 1992SOL    HW2 7967   3.261   1.175   3.635  1.6179  1.7551  2.7409
 1992SOL     MW 7968   3.209   1.236   3.601  0.9565 -0.0346  0.2236
 1993SOL     OW 7969   3.726   2.424   3.294  0.1273  0.0184 -0.0241
 1993SOL    HW1 7970   3.810   2.469   3.301 -0.0185  0.3353 -0.2741
 1993SOL    HW2 7971   3.679   2.449   3.373  0.0894  0.2195 -0.1091
 1993SOL     MW 7972   3.731   2.433   3.305  0.1038  0.0847 -0.0670
 1994SOL     OW 7973   3.591   2.693   2.356  0.1634 -0.1176  0.1599
 1994SOL    HW1 7974   3.647   2.750   2.410  0.7545  0.2105 -0.7734
 1994SOL    HW2 7975   3.622   2.707   2.267 -0.1769 -1.3648 -0.1719
 1994SOL     MW 7976   3.603   2.702   2.352  0.1955 -0.2352 -0.0020
 1995SOL     OW 7977   4.108   5.131   0.284  0.4235  0.2913  0.4240
 1995SOL    HW1 7978   4.029   5.120   0.337  0.8651 -0.3420  0.9581
 1995SOL    HW2 7979   4.181   5.118   0.345  0.9435  0.6102 -0.1162
 1995SOL     MW 7980   4.107   5.128   0.299  0.5466  0.2510  0.4232
 1996SOL     OW 7981   0.899   4.628   5.019  0.4089  0.1186 -0.2290
 1996SOL    HW1 7982   0.887   4.536   4.993  0.3946  0.6284 -2.2023
 1996SOL    HW2 7983   0.987   4.630   5.057  0.0645 -0.8618  0.6676
 1996SOL     MW 7984   0.909   4.616   5.020  0.3630  0.0584 -0.3668
 1997SOL     OW 7985   4.698   1.558   3.143  0.4462 -0.0148  0.1570
 1997SOL    HW1 7986   4.774   1.505   3.169  0.4915  0.1488  0.3589
 1997SOL    HW2 7987   4.731   1.613   3.072  0.0182 -1.2860 -1.0571
 1997SOL     MW 7988   4.712   1.559   3.137  0.3972 -0.1566  0.0274
 1998SOL     OW 7989   0.238   5.339   3.358 -0.5946 -0.0952 -0.1535
 1998SOL    HW1 7990   0.181   5.398   3.307  0.0455  0.8893  0.2283
 1998SOL    HW2 7991   0.253   5.265   3.300 -0.1544  0.8477 -1.2961
 1998SOL     MW 7992   0.232   5.337   3.344 -0.4563  0.1516 -0.2509
 1999SOL     OW 7993   0.493   4.332   3.736  0.1035  0.0042  0.0033
 1999SOL    HW1 7994   0.530   4.412   3.699  0.3917 -0.0599  0.1423
 1999SOL    HW2 7995   0.400   4.337   3.717  0.2685 -0.0952 -0.8394
 1999SOL     MW 7996   0.486   4.343   3.729  0.1615 -0.0167 -0.0868
 2000SOL     OW 7997   1.527   2.137   3.941  0.1889  0.1632 -0.2273
 2000SOL    HW1 7998   1.584   2.214   3.940 -1.8583  1.7523 -0.5288
 2000SOL    HW2 7999   1.494   2.131   3.852 -0.2622 -0.6216 -0.0122
 2000SOL     MW 8000   1.530   2.146   3.929 -0.1309  0.2662 -0.2384
 2001SOL     OW 8001   0.302   4.567   5.007  0.3955  0.0173  0.2703
 2001SOL    HW1 8002   0.249   4.489   5.022 -1.9382  1.4094 -0.2180
 2001SOL    HW2 8003   0.294   4.618   5.088  1.2969  0.1259  0.3119
 2001SOL     MW 8004   0.295   4.564   5.020  0.2122  0.2094  0.2131
 2002SOL     OW 8005   1.377   1.120   3.485  0.1762  0.3296  0.0463
 2002SOL    HW1 8006   1.444   1.186   3.469 -0.3335  0.7118 -0.5601
 2002SOL    HW2 8007   1.294   1.167   3.477 -0.1860 -0.2966  0.0118
 2002SOL     MW 8008   1.375   1.134   3.482  0.0646  0.2984 -0.0358
 2003SOL     OW 8009   3.470   4.135   2.987  0.6171  0.1100 -0.0565
 2003SOL    HW1 8010   3.437   4.085   3.061  1.5240 -0.8149 -0.2502
 2003SOL    HW2 8011   3.429   4.094   2.910  0.5693  0.3285 -0.1494
 2003SOL     MW 8012   3.460   4.124   2.987  0.7271  0.0195 -0.0932
 2004SOL     OW 8013   3.162   2.956   1.425 -1.2486  0.0583  0.0914
 2004SOL    HW1 8014   3.113   2.946   1.507  1.6400 -0.5702  1.8712
 2004SOL    HW2 8015   3.192   3.047   1.426 -0.1599 -0.2964  0.3789
 2004SOL     MW 8016   3.159   2.967   1.435 -0.7395 -0.0675  0.3561
 2005SOL     OW 8017   4.436   5.403   0.378  0.4226 -0.2262 -0.1384
 2005SOL    HW1 8018   4.378   5.479   0.374  1.4287  0.5073 -2.1652
 2005SOL    HW2 8019   4.523   5.438   0.363  1.7516 -1.1083  4.1737
 2005SOL     MW 8020   4.439   5.417   0.376  0.7216 -0.2452  0.1541
 2006SOL     OW 8021   3.316   2.274   5.045  0.4486  0.0607  0.5031
 2006SOL    HW1 8022   3.283   2.363   5.050  1.2806  0.4242 -0.1963
 2006SOL    HW2 8023   3.239   2.222   5.018 -0.0856  0.5217  1.1089
 2006SOL     MW 8024   3.302   2.279   5.042  0.4867  0.1662  0.4911
 2007SOL     OW 8025   4.337   0.549   5.227  0.2931 -0.0766 -0.4941
 2007SOL    HW1 8026   4.292   0.630   5.205  0.4195 -0.0839 -0.7760
 2007SOL    HW2 8027   4.318   0.490   5.155  0.1601 -0.3143 -0.2635
 2007SOL     MW 8028   4.329   0.552   5.215  0.2923 -0.1080 -0.5007
 2008SOL     OW 8029   1.008   2.957   4.637 -0.7640  0.1643  0.4991
 2008SOL    HW1 8030   0.943   2.940   4.569 -0.7170 -0.8051  0.6825
 2008SOL    HW2 8031   1.072   2.887   4.627  0.4370  1.2660  0.1268
 2008SOL     MW 8032   1.008   2.946   4.627 -0.6042  0.1812  0.4749
 2009SOL     OW 8033   5.035   4.482   1.359  0.2563 -0.6668  0.1589
 2009SOL    HW1 8034   5.094   4.557   1.351 -0.1769 -0.3044  0.3238
 2009SOL    HW2 8035   5.088   4.407   1.331  0.8082 -0.3544  0.3378
 2009SOL     MW 8036   5.050   4.482   1.355  0.2715 -0.5804  0.2029
 2010SOL     OW 8037   3.173   4.853   3.352 -0.3388 -0.3136 -0.3800
 2010SOL    HW1 8038   3.107   4.811   3.408  0.7757  0.5575  1.7409
 2010SOL    HW2 8039   3.250   4.796   3.359 -0.4884 -0.7407 -1.9293
 2010SOL     MW 8040   3.174   4.840   3.360 -0.2153 -0.2567 -0.3069
 2011SOL     OW 8041   2.902   4.010   2.801 -0.0179 -0.1835 -0.0657
 2011SOL    HW1 8042   2.857   3.925   2.791 -0.6453  0.3460 -2.3271
 2011SOL    HW2 8043   2.831   4.074   2.807  0.4526  0.3470 -0.0786
 2011SOL     MW 8044   2.887   4.007   2.801 -0.0380 -0.0478 -0.3569
 2012SOL     OW 8045   2.230   1.544   0.409  0.2823 -0.1217 -0.1292
 2012SOL    HW1 8046   2.209   1.611   0.473 -0.1874 -0.9370  0.5884
 2012SOL    HW2 8047   2.146   1.503   0.387  0.6242 -0.8735 -0.0914
 2012SOL     MW 8048   2.217   1.547   0.414  0.2659 -0.3223 -0.0325
 2013SOL     OW 8049   2.700   3.273   0.502  0.2048 -0.0148 -0.0685
 2013SOL    HW1 8050   2.757   3.207   0.540 -0.4770  0.1574  1.3019
 2013SOL    HW2 8051   2.611   3.246   0.525 -0.2307  0.2392 -1.3396
 2013SOL     MW 8052   2.696   3.261   0.509  0.0618  0.0398 -0.0558
 2014SOL     OW 8053   5.111   3.831   0.125 -0.3309 -0.1237 -0.0188
 2014SOL    HW1 8054   5.168   3.756   0.143 -1.6580 -0.9405  0.9387
 2014SOL    HW2 8055   5.107   3.879   0.207 -0.1814  0.5415 -0.3872
 2014SOL     MW 8056   5.118   3.828   0.137 -0.4816 -0.1431  0.0566
 2015SOL     OW 8057   2.522   1.101   3.836 -0.5642  0.0045 -0.4853
 2015SOL    HW1 8058   2.527   1.026   3.777  0.8549  0.5691 -1.1342
 2015SOL    HW2 8059   2.614   1.127   3.849 -1.0411  2.1957 -1.0491
 2015SOL     MW 8060   2.535   1.095   3.830 -0.4436  0.3573 -0.6405
 2016SOL     OW 8061   1.658   0.440   4.793  0.2847 -0.1620 -0.1338
 2016SOL    HW1 8062   1.683   0.441   4.885  0.5805 -1.0747 -0.1977
 2016SOL    HW2 8063   1.738   0.463   4.745 -0.0994  1.2907 -0.1369
 2016SOL     MW 8064   1.671   0.443   4.798  0.2734 -0.0929 -0.1424
 2017SOL     OW 8065   0.118   1.562   0.948 -0.4117 -0.1004  0.0986
 2017SOL    HW1 8066   0.045   1.501   0.952 -1.6539  1.3353  0.1568
 2017SOL    HW2 8067   0.090   1.629   0.885  0.4109  1.0117  0.8762
 2017SOL     MW 8068   0.105   1.563   0.940 -0.4654  0.2258  0.2056
 2018SOL     OW 8069   2.674   4.729   4.490  0.2234  0.4757  0.1514
 2018SOL    HW1 8070   2.640   4.819   4.497 -3.2821 -0.7947  2.1889
 2018SOL    HW2 8071   2.612   4.685   4.432  0.2512 -1.1981  1.3147
 2018SOL     MW 8072   2.661   4.735   4.484 -0.2218  0.0988  0.5611
 2019SOL     OW 8073   2.796   0.317   1.389  0.3572 -0.2183 -0.1452
 2019SOL    HW1 8074   2.834   0.230   1.377 -0.4664 -0.6593  0.3088
 2019SOL    HW2 8075   2.858   0.364   1.445  2.0387  0.3577 -2.3508
 2019SOL     MW 8076   2.808   0.312   1.395  0.4670 -0.2010 -0.3694
 2020SOL     OW 8077   0.161   0.634   0.652  0.3462 -0.4318  0.2832
 2020SOL    HW1 8078   0.127   0.704   0.596 -2.1638 -1.8748 -0.1822
 2020SOL    HW2 8079   0.166   0.673   0.739 -1.5275  0.2369  0.1316
 2020SOL     MW 8080   0.157   0.648   0.656 -0.2150 -0.5309  0.2042
 2021SOL     OW 8081   3.470   3.793   5.426  0.3539 -0.1798 -0.0230
 2021SOL    HW1 8082   3.455   3.822   5.516 -1.4506  1.2347 -0.7150
 2021SOL    HW2 8083   3.399   3.833   5.376  1.6932 -0.3768 -2.2020
 2021SOL     MW 8084   3.459   3.802   5.431  0.2943 -0.0239 -0.3905
 2022SOL     OW 8085   2.196   5.207   4.403 -0.6343  0.3409 -0.2059
 2022SOL    HW1 8086   2.119   5.240   4.450 -0.1299  0.0859  0.8481
 2022SOL    HW2 8087   2.162   5.174   4.320 -1.7042 -0.0287  0.3602
 2022SOL     MW 8088   2.182   5.207   4.399 -0.7067  0.2610  0.0015
 2023SOL     OW 8089   3.081   1.975   2.245 -0.3728  0.0014 -0.2019
 2023SOL    HW1 8090   3.014   2.017   2.300  0.5950  1.9049 -0.3795
 2023SOL    HW2 8091   3.095   2.038   2.174  3.0280  0.6826  0.8998
 2023SOL     MW 8092   3.074   1.989   2.243  0.1864  0.3322 -0.0836
 2024SOL     OW 8093   0.521   0.806   3.541  0.6882 -0.0554 -0.9118
 2024SOL    HW1 8094   0.531   0.778   3.632 -0.4505  1.6623 -0.1963
 2024SOL    HW2 8095   0.597   0.861   3.524  0.6834 -0.0347 -0.8649
 2024SOL     MW 8096   0.532   0.809   3.551  0.5418  0.1671 -0.8142
 2025SOL     OW 8097   1.006   2.731   1.250 -0.2685 -0.0654  0.3689
 2025SOL    HW1 8098   1.028   2.782   1.328 -0.5323  0.0925  0.3376
 2025SOL    HW2 8099   0.916   2.754   1.230 -0.1984 -0.1036  0.0105
 2025SOL     MW 8100   0.997   2.740   1.258 -0.2933 -0.0501  0.3190
 2026SOL     OW 8101   0.891   5.209   3.649 -0.0718 -0.5402  0.3006
 2026SOL    HW1 8102   0.895   5.300   3.679  1.4545 -0.6498  0.5118
 2026SOL    HW2 8103   0.964   5.167   3.693 -0.7171 -1.8699  0.1446
 2026SOL     MW 8104   0.901   5.215   3.659  0.0410 -0.7244  0.3077
 2027SOL     OW 8105   3.789   1.110   1.777 -0.0267  0.1272 -0.1326
 2027SOL    HW1 8106   3.803   1.016   1.764 -2.2292 -0.3354  0.3832
 2027SOL    HW2 8107   3.731   1.114   1.853 -1.9939  1.7645 -1.6541
 2027SOL     MW 8108   3.784   1.098   1.785 -0.5605  0.2775 -0.2613
 2028SOL     OW 8109   1.499   0.688   2.022 -0.2827  0.1734  0.4012
 2028SOL    HW1 8110   1.449   0.607   2.034  1.5424 -1.0952 -0.1330
 2028SOL    HW2 8111   1.432   0.757   2.019 -2.0489 -1.4800 -0.8251
 2028SOL     MW 8112   1.484   0.687   2.023 -0.2751 -0.2006  0.1759
 2029SOL     OW 8113   0.796   2.802   5.384 -0.3497  0.0373  0.2075
 2029SOL    HW1 8114   0.826   2.777   5.472  0.2565  0.1692  0.0401
 2029SOL    HW2 8115   0.790   2.898   5.388 -0.3418  0.0418  0.1084
 2029SOL     MW 8116   0.799   2.811   5.396 -0.2711  0.0548  0.1734
 2030SOL     OW 8117   4.227   2.567   4.298 -0.0643  0.5631  0.6261
 2030SOL    HW1 8118   4.212   2.627   4.226 -0.0249  1.2069  1.1454
 2030SOL    HW2 8119   4.298   2.607   4.349  0.7252 -0.4688  0.3759
 2030SOL     MW 8120   4.234   2.579   4.295  0.0418  0.5134  0.6606
 2031SOL     OW 8121   2.401   5.332   2.985 -0.4196  0.2148  0.4108
 2031SOL    HW1 8122   2.366   5.251   2.949  0.2589  0.0116  0.1906
 2031SOL    HW2 8123   2.445   5.305   3.066  1.7362 -0.0193 -0.7707
 2031SOL     MW 8124   2.402   5.318   2.991 -0.0568  0.1588  0.2314
 2032SOL     OW 8125   3.445   4.385   3.330 -0.2322 -0.0617 -0.4182
 2032SOL    HW1 8126   3.392   4.309   3.354 -1.2246  0.6688 -0.2320
 2032SOL    HW2 8127   3.535   4.352   3.329 -0.6340 -1.2126 -0.2563
 2032SOL     MW 8128   3.450   4.371   3.333 -0.4107 -0.1155 -0.3736
 2033SOL     OW 8129   2.229   0.699   3.369  0.3919  0.5501  0.0093
 2033SOL    HW1 8130   2.272   0.722   3.452  0.5723 -0.2597  0.1509
 2033SOL    HW2 8131   2.274   0.620   3.340 -0.2825  0.3060 -0.3956
 2033SOL     MW 8132   2.240   0.692   3.376  0.3287  0.4152 -0.0244
 2034SOL     OW 8133   0.335   1.591   1.526 -0.2261 -0.1775  0.8774
 2034SOL    HW1 8134   0.273   1.518   1.524 -0.0844 -0.2945  0.4232
 2034SOL    HW2 8135   0.409   1.560   1.473 -0.2721  0.3874  0.4685
 2034SOL     MW 8136   0.336   1.578   1.519 -0.2138 -0.1201  0.7669
 2035SOL     OW 8137   3.403   3.423   1.624  0.3685 -0.2001  0.5951
 2035SOL    HW1 8138   3.361   3.388   1.545 -3.2810 -0.1800  2.3479
 2035SOL    HW2 8139   3.444   3.347   1.665 -0.3054 -0.7764  0.2100
 2035SOL     MW 8140   3.403   3.409   1.619 -0.1849 -0.2713  0.7702
 2036SOL     OW 8141   1.029   0.313   4.103 -0.3360 -0.0494  0.1785
 2036SOL    HW1 8142   1.105   0.322   4.045 -1.7555  1.6793 -1.5690
 2036SOL    HW2 8143   1.058   0.349   4.187  0.6994  0.9016 -0.5540
 2036SOL     MW 8144   1.042   0.319   4.106 -0.3851  0.2936 -0.1389
 2037SOL     OW 8145   2.697   0.174   1.037 -0.3028 -0.4876  0.6838
 2037SOL    HW1 8146   2.605   0.200   1.030 -0.1651 -0.1794 -0.1964
 2037SOL    HW2 8147   2.740   0.249   1.078 -0.2210 -0.0669 -0.1527
 2037SOL     MW 8148   2.691   0.187   1.041 -0.2747 -0.3943  0.4641
 2038SOL     OW 8149   1.473   0.457   1.036 -0.0539 -0.0308  0.4899
 2038SOL    HW1 8150   1.540   0.523   1.019 -1.1975  0.5941 -2.0655
 2038SOL    HW2 8151   1.507   0.377   0.996 -0.1938 -0.0850  0.4783
 2038SOL     MW 8152   1.486   0.455   1.029 -0.2182  0.0423  0.1613
 2039SOL     OW 8153   1.222   3.654   1.829 -0.4791 -0.2513 -0.2883
 2039SOL    HW1 8154   1.156   3.660   1.897 -0.1346  1.3727 -0.0429
 2039SOL    HW2 8155   1.192   3.713   1.760  0.7699  0.6785 -0.0869
 2039SOL     MW 8156   1.210   3.663   1.829 -0.2751  0.0756 -0.2311
 2040SOL     OW 8157   4.187   4.462   4.511 -0.3738 -0.7020 -0.3274
 2040SOL    HW1 8158   4.223   4.543   4.474  0.8207 -1.1188 -0.1208
 2040SOL    HW2 8159   4.261   4.422   4.556 -1.1717 -1.4916  0.3016
 2040SOL     MW 8160   4.201   4.467   4.512 -0.3230 -0.8564 -0.2204
 2041SOL     OW 8161   1.123   2.447   0.484 -0.1502 -0.2137  0.5056
 2041SOL    HW1 8162   1.165   2.362   0.502  1.5350  0.7682  1.4415
 2041SOL    HW2 8163   1.049   2.451   0.544 -1.3937 -1.7740 -0.8247
 2041SOL     MW 8164   1.119   2.436   0.494 -0.0936 -0.2877  0.4551
 2042SOL     OW 8165   1.799   2.331   3.308 -0.1547  0.4475  0.6447
 2042SOL    HW1 8166   1.885   2.354   3.344  0.4853  1.0381 -1.1490
 2042SOL    HW2 8167   1.737   2.371   3.369  0.8922  1.9617  0.7966
 2042SOL     MW 8168   1.802   2.339   3.320  0.0613  0.7170  0.4345
 2043SOL     OW 8169   2.135   1.958   4.092  0.8817 -0.1045  0.0853
 2043SOL    HW1 8170   2.199   2.012   4.139  1.5517 -1.2833  0.5604
 2043SOL    HW2 8171   2.089   1.910   4.160 -1.4446  1.6060 -0.1222
 2043SOL     MW 8172   2.137   1.959   4.106  0.6697 -0.0364  0.1195
 2044SOL     OW 8173   4.927   4.681   3.853 -0.9014  1.0936 -0.0882
 2044SOL    HW1 8174   4.947   4.625   3.928 -0.9522  0.6157 -0.4261
 2044SOL    HW2 8175   5.004   4.738   3.845 -2.0614  3.1445  2.0752
 2044SOL     MW 8176   4.939   4.681   3.861 -1.0564  1.2950  0.1455
 2045SOL     OW 8177   4.233   0.923   1.387  0.4900 -0.1343  0.2594
 2045SOL    HW1 8178   4.322   0.893   1.371  1.0694  1.6057  0.0534
 2045SOL    HW2 8179   4.238   0.967   1.472  0.0220  0.7421 -0.1648
 2045SOL     MW 8180   4.245   0.925   1.396  0.5042  0.2006  0.1787
 2046SOL     OW 8181   2.873   2.913   0.913 -0.4897 -0.3754  0.2467
 2046SOL    HW1 8182   2.806   2.845   0.920 -0.8307 -0.0173  0.5064
 2046SOL    HW2 8183   2.945   2.871   0.867 -1.5227 -0.2795 -1.5552
 2046SOL     MW 8184   2.873   2.899   0.908 -0.6656 -0.3173  0.0493
 2047SOL     OW 8185   0.803   4.583   3.347 -0.4528  0.3859  0.6413
 2047SOL    HW1 8186   0.795   4.622   3.435 -0.8352  1.6590  0.0647
 2047SOL    HW2 8187   0.880   4.626   3.309  0.4242 -1.0088  0.7439
 2047SOL     MW 8188   0.812   4.594   3.354 -0.3895  0.3703  0.5806
 2048SOL     OW 8189   1.544   1.920   5.205 -0.0791  0.2573  0.7844
 2048SOL    HW1 8190   1.536   1.914   5.300  0.4545  0.1500  0.8249
 2048SOL    HW2 8191   1.620   1.865   5.184  1.2188  2.0833  0.5348
 2048SOL     MW 8192   1.552   1.912   5.215  0.1554  0.4773  0.7576
 2049SOL     OW 8193   2.276   3.722   0.992  0.6251 -0.3717  0.2918
 2049SOL    HW1 8194   2.327   3.658   1.042  0.5713 -0.7808 -0.1593
 2049SOL    HW2 8195   2.309   3.712   0.902 -0.3273 -0.7286 -0.0302
 2049SOL     MW 8196   2.287   3.712   0.987  0.4963 -0.4697  0.1929
 2050SOL     OW 8197   1.442   4.439   1.432  0.1169 -0.7468 -0.0037
 2050SOL    HW1 8198   1.394   4.519   1.412 -0.3164 -1.1341 -0.5306
 2050SOL    HW2 8199   1.480   4.455   1.518 -3.0450 -1.3319  1.6883
 2050SOL     MW 8200   1.441   4.451   1.441 -0.3433 -0.8713  0.1454
 2051SOL     OW 8201   1.787   3.372   4.095 -0.3278 -0.2216 -0.1890
 2051SOL    HW1 8202   1.788   3.296   4.153 -2.3385 -0.6437 -0.6358
 2051SOL    HW2 8203   1.855   3.430   4.130  1.1674 -2.1411  0.2388
 2051SOL     MW 8204   1.796   3.370   4.107 -0.3938 -0.5213 -0.1914
 2052SOL     OW 8205   2.864   1.281   1.027 -0.6079 -0.2095 -0.5356
 2052SOL    HW1 8206   2.790   1.312   0.976 -1.8095 -1.9034  0.0590
 2052SOL    HW2 8207   2.836   1.290   1.118 -0.5850 -1.9225 -0.3247
 2052SOL     MW 8208   2.851   1.286   1.032 -0.7588 -0.6456 -0.4325
 2053SOL     OW 8209   4.036   0.775   0.349  0.5122  0.0976  0.2697
 2053SOL    HW1 8210   4.030   0.684   0.379  1.2324 -0.6249 -1.6436
 2053SOL    HW2 8211   4.031   0.769   0.254 -1.2071  2.2429  0.1544
 2053SOL     MW 8212   4.035   0.762   0.341  0.3843  0.2797  0.0100
 2054SOL     OW 8213   0.572   3.612   1.283  0.0540  0.3646  0.2416
 2054SOL    HW1 8214   0.620   3.689   1.252  2.1213 -0.9267  0.0327
 2054SOL    HW2 8215   0.497   3.648   1.331  0.3635  2.4719 -0.7413
 2054SOL     MW 8216   0.568   3.627   1.285  0.3583  0.4691  0.0891
 2055SOL     OW 8217   0.271   4.762   3.012 -0.6951  0.2348  0.0196
 2055SOL    HW1 8218   0.191   4.773   2.961 -0.1472 -1.8873 -1.4428
 2055SOL    HW2 8219   0.341   4.763   2.947  0.0849 -1.8951  0.7363
 2055SOL     MW 8220   0.270   4.763   2.997 -0.5251 -0.3095 -0.0759
 2056SOL     OW 8221   0.357   3.920   1.300 -0.5927 -0.0802 -0.0425
 2056SOL    HW1 8222   0.344   3.832   1.336 -1.6898  0.7400  1.7353
 2056SOL    HW2 8223   0.282   3.933   1.242 -0.6080 -0.2110 -0.0524
 2056SOL     MW 8224   0.345   3.910   1.298 -0.7351  0.0080  0.1838
 2057SOL     OW 8225   0.353   1.751   4.577  0.4602  0.2283  0.2039
 2057SOL    HW1 8226   0.409   1.674   4.579 -2.3010 -1.9139  0.8484
 2057SOL    HW2 8227   0.313   1.755   4.664 -1.2507  0.9288 -0.5543
 2057SOL     MW 8228   0.355   1.742   4.588 -0.1123  0.0438  0.1894
 2058SOL     OW 8229   5.097   0.281   2.750  0.0986 -0.3421  0.3742
 2058SOL    HW1 8230   5.084   0.224   2.673  0.9709 -0.7562  0.5316
 2058SOL    HW2 8231   5.038   0.355   2.734 -0.4089 -0.8616 -0.2532
 2058SOL     MW 8232   5.088   0.283   2.738  0.1453 -0.4616  0.3140
 2059SOL     OW 8233   1.664   1.496   0.464 -0.3378  0.6343 -0.7557
 2059SOL    HW1 8234   1.701   1.444   0.535  0.9453  1.1420 -1.0246
 2059SOL    HW2 8235   1.581   1.453   0.443 -0.5579  0.2480  0.7721
 2059SOL     MW 8236   1.658   1.484   0.471 -0.2017  0.6498 -0.5945
 2060SOL     OW 8237   5.074   1.136   2.718  0.0831 -0.0691 -0.1879
 2060SOL    HW1 8238   5.144   1.150   2.655 -0.9139 -2.9300 -2.1671
 2060SOL    HW2 8239   5.090   1.048   2.752 -1.8710 -0.3432  0.1542
 2060SOL     MW 8240   5.085   1.127   2.715 -0.2947 -0.4704 -0.3975
 2061SOL     OW 8241   4.964   5.332   4.764  0.4456  0.0352 -0.2891
 2061SOL    HW1 8242   4.880   5.377   4.774  0.1567 -0.5270 -0.1302
 2061SOL    HW2 8243   4.999   5.363   4.680 -0.5070 -0.6819 -0.9608
 2061SOL     MW 8244   4.958   5.342   4.755  0.2866 -0.1286 -0.3547
 2062SOL     OW 8245   0.307   2.322   0.900 -0.5176  0.1745 -0.8156
 2062SOL    HW1 8246   0.317   2.250   0.838 -0.1601 -0.0062 -0.5473
 2062SOL    HW2 8247   0.386   2.375   0.889 -0.2730 -0.0639 -0.2456
 2062SOL     MW 8248   0.318   2.320   0.891 -0.4405  0.1208 -0.7083
 2063SOL     OW 8249   1.826   0.564   3.196  0.2880 -0.0326 -0.0567
 2063SOL    HW1 8250   1.910   0.518   3.204 -0.4834 -1.2214  2.2802
 2063SOL    HW2 8251   1.793   0.540   3.110  0.7935 -2.4019  0.3436
 2063SOL     MW 8252   1.833   0.555   3.186  0.2539 -0.4881  0.2937
 2064SOL     OW 8253   2.077   1.169   0.273 -0.2801  0.2930 -0.1164
 2064SOL    HW1 8254   2.035   1.133   0.351 -0.2850 -0.5849 -0.5092
 2064SOL    HW2 8255   2.020   1.242   0.247  0.8362  1.9604  1.8607
 2064SOL     MW 8256   2.064   1.174   0.279 -0.1379  0.3940  0.0864
 2065SOL     OW 8257   1.421   3.761   3.726 -0.0321  0.8680  0.1917
 2065SOL    HW1 8258   1.511   3.729   3.738  0.1150  0.8993 -0.7806
 2065SOL    HW2 8259   1.366   3.689   3.758  0.3224  0.2902 -0.4826
 2065SOL     MW 8260   1.426   3.748   3.732  0.0321  0.7981 -0.0191
 2066SOL     OW 8261   3.100   0.245   0.229  0.1329 -0.7070  0.0017
 2066SOL    HW1 8262   3.126   0.312   0.166 -0.6255 -0.0510  0.3609
 2066SOL    HW2 8263   3.038   0.190   0.182 -0.6458 -0.0541  0.2263
 2066SOL     MW 8264   3.095   0.247   0.215 -0.0639 -0.5394  0.0764
 2067SOL     OW 8265   3.130   1.403   4.584  0.3037 -0.0519 -0.2555
 2067SOL    HW1 8266   3.061   1.462   4.613  1.4638  0.8802  0.7238
 2067SOL    HW2 8267   3.152   1.434   4.496  0.1324  0.2735 -0.1845
 2067SOL     MW 8268   3.124   1.415   4.576  0.4303  0.1091 -0.1211
 2068SOL     OW 8269   3.674   1.354   5.091 -0.1879  0.0562 -0.2202
 2068SOL    HW1 8270   3.599   1.383   5.040 -0.8222 -0.1356  0.5967
 2068SOL    HW2 8271   3.683   1.420   5.160  0.7185  0.3622 -0.6135
 2068SOL     MW 8272   3.666   1.366   5.093 -0.1530  0.0709 -0.1660
 2069SOL     OW 8273   0.048   1.521   2.309 -0.0649  0.2762 -0.1581
 2069SOL    HW1 8274  -0.011   1.573   2.255 -1.6784 -1.2483  0.0259
 2069SOL    HW2 8275   0.098   1.585   2.360 -1.8141  1.6561 -0.0807
 2069SOL     MW 8276   0.047   1.536   2.309 -0.4954  0.2577 -0.1246
 2070SOL     OW 8277   1.231   2.627   0.861  0.1793  0.3894 -0.1368
 2070SOL    HW1 8278   1.283   2.636   0.940 -0.2783  3.0855 -0.0486
 2070SOL    HW2 8279   1.280   2.674   0.794 -1.3231  1.6051 -0.4455
 2070SOL     MW 8280   1.244   2.634   0.862 -0.0716  0.8902 -0.1650
 2071SOL     OW 8281   0.378   2.938   2.379 -0.0106  0.7417  0.6992
 2071SOL    HW1 8282   0.376   2.942   2.283 -0.8131  0.7882  0.7115
 2071SOL    HW2 8283   0.386   3.029   2.407 -1.6067  0.9126  0.6940
 2071SOL     MW 8284   0.379   2.950   2.370 -0.3177  0.7696  0.7001
 2072SOL     OW 8285   0.261   2.471   1.262  0.1246  0.3412 -0.1364
 2072SOL    HW1 8286   0.270   2.566   1.260 -0.8755  0.4460 -0.1647
 2072SOL    HW2 8287   0.202   2.451   1.189  0.0233 -0.2661  0.1050
 2072SOL     MW 8288   0.255   2.480   1.252 -0.0164  0.2769 -0.1092
 2073SOL     OW 8289   2.736   1.660   0.506 -0.1920  1.2858 -0.0556
 2073SOL    HW1 8290   2.739   1.634   0.598 -0.6124  1.3090 -0.0325
 2073SOL    HW2 8291   2.729   1.755   0.509 -0.4065  1.2733 -0.1032
 2073SOL     MW 8292   2.735   1.669   0.518 -0.2732  1.2872 -0.0588
 2074SOL     OW 8293   2.886   1.529   3.435  0.1879 -0.1570 -0.0206
 2074SOL    HW1 8294   2.937   1.500   3.359  0.1730 -0.3383  0.0372
 2074SOL    HW2 8295   2.952   1.566   3.495  0.0859  0.8872 -0.5292
 2074SOL     MW 8296   2.901   1.530   3.433  0.1729 -0.0465 -0.0783
 2075SOL     OW 8297   3.324   4.634   3.658  0.3688 -0.1352  0.2050
 2075SOL    HW1 8298   3.408   4.651   3.701 -0.1155  0.5199  0.9062
 2075SOL    HW2 8299   3.338   4.658   3.567  0.1113  2.8843  0.8712
 2075SOL     MW 8300   3.337   4.639   3.652  0.2739  0.3352  0.3800
 2076SOL     OW 8301   0.627   3.629   4.279 -0.5826  0.0348  0.1913
 2076SOL    HW1 8302   0.570   3.576   4.223 -0.6917 -0.1147  0.4463
 2076SOL    HW2 8303   0.715   3.598   4.258 -0.5990  0.2057 -0.1381
 2076SOL     MW 8304   0.631   3.618   4.269 -0.5986  0.0376  0.1818
 2077SOL     OW 8305   4.871   0.372   4.544  0.5673  0.4902  0.1047
 2077SOL    HW1 8306   4.864   0.466   4.556 -0.3972  0.3897  0.4271
 2077SOL    HW2 8307   4.893   0.361   4.451  2.7528  1.0854  0.5042
 2077SOL     MW 8308   4.873   0.382   4.533  0.7236  0.5536  0.1972
 2078SOL     OW 8309   0.202   0.079   4.671  0.0556  0.2634 -0.1661
 2078SOL    HW1 8310   0.194   0.084   4.766 -1.7806 -1.0378 -0.1795
 2078SOL    HW2 8311   0.264   0.147   4.648  0.5096  0.6406  1.9589
 2078SOL     MW 8312   0.209   0.088   4.680 -0.1214  0.1451  0.1042
 2079SOL     OW 8313   1.838   4.151   4.407 -0.0621 -0.1238 -0.3652
 2079SOL    HW1 8314   1.891   4.175   4.330  0.1556  0.9357  0.0878
 2079SOL    HW2 8315   1.838   4.056   4.407  1.2096 -0.1477 -0.8230
 2079SOL     MW 8316   1.845   4.142   4.397  0.1286  0.0088 -0.3659
 2080SOL     OW 8317   5.055   4.378   4.539 -0.2643 -0.3305  0.0886
 2080SOL    HW1 8318   5.087   4.456   4.585 -0.5577  1.0589 -1.9033
 2080SOL    HW2 8319   4.961   4.378   4.555 -0.0899 -1.0507  1.1648
 2080SOL     MW 8320   5.047   4.388   4.547 -0.2795 -0.2448 -0.0286
 2081SOL     OW 8321   3.961   0.696   3.828 -0.7454 -0.1836 -0.5268
 2081SOL    HW1 8322   3.879   0.682   3.876  0.5117 -3.6288  0.9691
 2081SOL    HW2 8323   3.950   0.645   3.748 -0.2809 -0.2372 -0.5585
 2081SOL     MW 8324   3.949   0.687   3.824 -0.5250 -0.6315 -0.3394
 2082SOL     OW 8325   1.332   0.272   1.764  0.6055 -0.2600  0.4922
 2082SOL    HW1 8326   1.273   0.336   1.805 -1.5866 -2.0613  0.3313
 2082SOL    HW2 8327   1.285   0.243   1.685  3.6752  1.3903 -2.2129
 2082SOL     MW 8328   1.318   0.277   1.759  0.7179 -0.2794  0.1253
 2083SOL     OW 8329   1.160   0.328   1.346  0.8732 -0.2538 -0.6439
 2083SOL    HW1 8330   1.188   0.419   1.343  0.3719 -0.1174 -1.4822
 2083SOL    HW2 8331   1.075   0.330   1.390  0.0640 -0.0811 -2.1364
 2083SOL     MW 8332   1.152   0.340   1.351  0.7055 -0.2142 -0.9422
 2084SOL     OW 8333   3.640   2.608   0.976 -0.1242  0.0658  0.3381
 2084SOL    HW1 8334   3.555   2.587   1.015  0.3114 -0.4633  1.0221
 2084SOL    HW2 8335   3.621   2.623   0.883 -0.7083 -1.7030  0.1478
 2084SOL     MW 8336   3.627   2.607   0.969 -0.1432 -0.2283  0.4013
 2085SOL     OW 8337   3.407   2.482   4.746  0.6742 -0.5208 -0.0061
 2085SOL    HW1 8338   3.466   2.532   4.690  1.4321 -0.3813  0.8912
 2085SOL    HW2 8339   3.320   2.518   4.729  1.2650  1.5856  1.1007
 2085SOL     MW 8340   3.403   2.493   4.737  0.8468 -0.2333  0.2504
 2086SOL     OW 8341   5.473   4.963   0.224  0.2242 -0.0343 -0.4283
 2086SOL    HW1 8342   5.381   4.945   0.206  0.3016 -0.9048 -0.0176
 2086SOL    HW2 8343   5.521   4.893   0.179  0.6306 -0.0974  0.0854
 2086SOL     MW 8344   5.468   4.952   0.216  0.2861 -0.1538 -0.3100
 2087SOL     OW 8345   1.342   3.287   3.128 -0.1237 -0.0888  0.6785
 2087SOL    HW1 8346   1.358   3.314   3.218 -1.0709 -0.5401  0.9874
 2087SOL    HW2 8347   1.370   3.195   3.125  0.1790  0.0091  0.4355
 2087SOL     MW 8348   1.348   3.278   3.139 -0.2062 -0.1340  0.6869
 2088SOL     OW 8349   0.938   0.403   5.099  0.4373  0.5843  0.5334
 2088SOL    HW1 8350   0.982   0.334   5.049  0.7332  0.4287  1.0031
 2088SOL    HW2 8351   0.846   0.397   5.071  0.5369  0.2708  0.2638
 2088SOL     MW 8352   0.932   0.393   5.089  0.4879  0.5243  0.5590
 2089SOL     OW 8353   4.058   0.873   2.032 -0.5261 -0.4251  0.3475
 2089SOL    HW1 8354   4.108   0.800   1.993 -2.6978 -1.0959 -1.4037
 2089SOL    HW2 8355   4.042   0.933   1.959 -0.6160  0.7529  1.3004
 2089SOL     MW 8356   4.062   0.871   2.018 -0.8156 -0.3602  0.2453
 2090SOL     OW 8357   4.489   1.469   1.307  0.0935  0.0578 -0.3549
 2090SOL    HW1 8358   4.432   1.532   1.352 -0.5433  0.5701 -1.7929
 2090SOL    HW2 8359   4.573   1.514   1.299 -0.0617  0.3343 -0.4736
 2090SOL     MW 8360   4.492   1.483   1.311 -0.0078  0.1588 -0.5542
 2091SOL     OW 8361   5.407   0.556   3.580  0.1494  0.4213  0.0848
 2091SOL    HW1 8362   5.319   0.526   3.603  0.2029  1.3486  1.5994
 2091SOL    HW2 8363   5.446   0.481   3.534 -1.3090 -0.1053 -0.3619
 2091SOL     MW 8364   5.401   0.542   3.577 -0.0304  0.4726  0.2215
 2092SOL     OW 8365   3.703   2.516   0.282 -0.7841 -0.1613  0.0672
 2092SOL    HW1 8366   3.759   2.594   0.287  1.6617 -1.6370 -1.6915
 2092SOL    HW2 8367   3.634   2.540   0.220 -0.2489  0.7369 -0.1995
 2092SOL     MW 8368   3.701   2.529   0.275 -0.4025 -0.2352 -0.1921
 2093SOL     OW 8369   3.357   0.782   0.427  0.0842  0.1979  0.2020
 2093SOL    HW1 8370   3.407   0.858   0.397 -1.4440  2.0085  1.9717
 2093SOL    HW2 8371   3.399   0.757   0.509  0.6049 -0.9630 -0.3881
 2093SOL     MW 8372   3.369   0.788   0.434 -0.0448  0.2811  0.3530
 2094SOL     OW 8373   5.159   1.597   4.506 -0.1028 -0.1039 -0.3764
 2094SOL    HW1 8374   5.223   1.644   4.452  0.3953 -0.3181  0.0184
 2094SOL    HW2 8375   5.144   1.515   4.458  1.5340 -1.0029  0.5608
 2094SOL     MW 8376   5.165   1.593   4.493  0.1705 -0.2464 -0.2059
 2095SOL     OW 8377   5.189   4.254   1.307 -0.5431 -0.1626  0.0625
 2095SOL    HW1 8378   5.250   4.252   1.233 -0.0947 -0.6285  0.4347
 2095SOL    HW2 8379   5.232   4.201   1.375 -1.1383 -0.0884  0.5064
 2095SOL     MW 8380   5.202   4.247   1.307 -0.5619 -0.2128  0.1670
 2096SOL     OW 8381   4.068   4.641   0.353 -0.8162 -0.0133  0.1140
 2096SOL    HW1 8382   4.124   4.608   0.423 -0.1601 -1.3827 -1.0037
 2096SOL    HW2 8383   3.982   4.604   0.372 -0.6426 -0.3810  0.1990
 2096SOL     MW 8384   4.064   4.632   0.365 -0.7100 -0.2356 -0.0182
 2097SOL     OW 8385   2.880   2.585   2.581  0.2298 -0.2567  0.0840
 2097SOL    HW1 8386   2.904   2.646   2.651  0.5047 -1.5714  1.1845
 2097SOL    HW2 8387   2.884   2.637   2.501  0.3129  1.1905  1.0003
 2097SOL     MW 8388   2.884   2.599   2.580  0.2756 -0.2397  0.3422
 2098SOL     OW 8389   1.736   4.054   1.148 -0.4778  0.0451  0.1591
 2098SOL    HW1 8390   1.694   4.088   1.069  1.0219 -0.9449 -1.1238
 2098SOL    HW2 8391   1.794   4.125   1.177 -0.5797  0.1904  0.0096
 2098SOL     MW 8392   1.738   4.068   1.141 -0.2988 -0.0630 -0.0242
 2099SOL     OW 8393   4.507   1.430   2.071 -0.4302  0.1349 -0.2159
 2099SOL    HW1 8394   4.451   1.441   1.994 -0.6310  1.8045  0.1332
 2099SOL    HW2 8395   4.516   1.335   2.080 -2.4924 -0.1710 -0.7959
 2099SOL     MW 8396   4.501   1.419   2.062 -0.7199  0.3095 -0.2455
 2100SOL     OW 8397   3.097   2.516   2.081 -0.1258  0.1916  0.6851
 2100SOL    HW1 8398   3.064   2.482   2.164 -0.2371  0.2328  0.6577
 2100SOL    HW2 8399   3.153   2.446   2.047 -1.5429 -0.6000 -0.1114
 2100SOL     MW 8400   3.100   2.503   2.087 -0.3214  0.0955  0.5796
 2101SOL     OW 8401   3.390   3.431   1.352  0.4222  0.4414  0.1118
 2101SOL    HW1 8402   3.386   3.337   1.334 -2.2217  0.3762  0.6875
 2101SOL    HW2 8403   3.448   3.466   1.284  2.6175 -1.7241  0.7248
 2101SOL     MW 8404   3.397   3.424   1.341  0.3647  0.1559  0.2640
 2102SOL     OW 8405   3.435   2.517   2.875  0.1048  0.4681  0.0103
 2102SOL    HW1 8406   3.464   2.473   2.955  2.1770  0.5372 -0.6308
 2102SOL    HW2 8407   3.356   2.565   2.901  0.4198  0.0787  1.8664
 2102SOL     MW 8408   3.429   2.518   2.889  0.4104  0.4271  0.1658
 2103SOL     OW 8409   4.035   2.363   3.038  0.5210  0.4895  0.1562
 2103SOL    HW1 8410   4.088   2.427   2.990  0.5338  1.4186  1.3728
 2103SOL    HW2 8411   3.948   2.368   2.998  0.0853  2.4517  1.2600
 2103SOL     MW 8412   4.031   2.372   3.026  0.4668  0.8596  0.4532
 2104SOL     OW 8413   4.310   5.279   4.685 -0.3141  0.1462 -0.3296
 2104SOL    HW1 8414   4.261   5.207   4.724  0.7001 -0.3091  0.1327
 2104SOL    HW2 8415   4.372   5.236   4.626  0.4392  0.6237  0.1030
 2104SOL     MW 8416   4.311   5.264   4.682 -0.0879  0.1491 -0.2151
 2105SOL     OW 8417   2.299   3.822   1.852  0.4859 -0.0568  0.2060
 2105SOL    HW1 8418   2.369   3.838   1.915 -0.0962 -1.4960  1.2637
 2105SOL    HW2 8419   2.225   3.874   1.883 -0.2039 -1.7180  1.4934
 2105SOL     MW 8420   2.298   3.831   1.864  0.3231 -0.4536  0.5062
 2106SOL     OW 8421   4.567   2.055   3.298  0.3519 -0.0455  0.1591
 2106SOL    HW1 8422   4.495   2.100   3.253  0.8355 -0.6505 -1.2881
 2106SOL    HW2 8423   4.526   1.977   3.334 -0.3546  1.1509  2.1291
 2106SOL     MW 8424   4.552   2.051   3.297  0.3234  0.0302  0.2261
 2107SOL     OW 8425   4.847   0.039   3.986  0.2883  0.7312 -0.4340
 2107SOL    HW1 8426   4.928   0.085   4.008 -0.3636  2.0688 -0.7416
 2107SOL    HW2 8427   4.815   0.083   3.907  0.1179 -0.8768 -1.3094
 2107SOL     MW 8428   4.854   0.050   3.978  0.1830  0.6966 -0.5855
 2108SOL     OW 8429   0.482   5.202   3.675 -0.0800 -0.2028  0.4783
 2108SOL    HW1 8430   0.397   5.161   3.660  0.4332 -0.3341 -2.5806
 2108SOL    HW2 8431   0.545   5.138   3.643  0.9595  1.3455 -0.6546
 2108SOL     MW 8432   0.479   5.188   3.669  0.1187 -0.0214 -0.0583
 2109SOL     OW 8433   3.290   5.265   4.657  0.1703  0.4372 -1.1031
 2109SOL    HW1 8434   3.377   5.226   4.665 -0.0390  0.0644 -0.5986
 2109SOL    HW2 8435   3.240   5.201   4.606 -1.0930 -1.5896  2.3198
 2109SOL     MW 8436   3.295   5.252   4.651 -0.0182  0.1300 -0.6003
 2110SOL     OW 8437   2.373   5.305   4.892  0.3267 -0.1769  0.2139
 2110SOL    HW1 8438   2.416   5.220   4.884  1.8137  0.6828 -1.2922
 2110SOL    HW2 8439   2.400   5.337   4.978  0.0486 -1.0426  0.6397
 2110SOL     MW 8440   2.382   5.298   4.902  0.4814 -0.1777  0.0756
 2111SOL     OW 8441   2.083   3.493   5.153 -0.0310 -0.1746  0.0658
 2111SOL    HW1 8442   2.067   3.403   5.181  0.7668 -0.9116 -1.7140
 2111SOL    HW2 8443   2.073   3.491   5.057  1.2957  1.3302 -0.1536
 2111SOL     MW 8444   2.079   3.481   5.144  0.2409 -0.0763 -0.1901
 2112SOL     OW 8445   4.232   0.797   5.140  0.1756  0.2422  0.3661
 2112SOL    HW1 8446   4.183   0.842   5.210  0.4951  1.8005 -0.3826
 2112SOL    HW2 8447   4.287   0.865   5.102  0.7779 -0.8329 -0.7278
 2112SOL     MW 8448   4.232   0.811   5.144  0.2936  0.3040  0.1302
 2113SOL     OW 8449   4.780   5.335   3.492 -0.6423 -0.1785 -0.2788
 2113SOL    HW1 8450   4.787   5.338   3.397  1.0837  0.2073 -0.1736
 2113SOL    HW2 8451   4.809   5.247   3.516  2.6563  0.8495  0.0562
 2113SOL     MW 8452   4.785   5.324   3.483  0.0009  0.0025 -0.2225
 2114SOL     OW 8453   0.889   4.355   4.483 -0.3938  0.2008  0.1065
 2114SOL    HW1 8454   0.979   4.378   4.502 -0.7145  1.3291  0.2927
 2114SOL    HW2 8455   0.856   4.317   4.564  0.0329 -0.6527 -0.1019
 2114SOL     MW 8456   0.896   4.353   4.496 -0.3802  0.2360  0.1037
 2115SOL     OW 8457   5.225   4.933   1.107  0.2460 -0.0788  0.4397
 2115SOL    HW1 8458   5.216   5.024   1.076 -0.8575 -0.7743 -1.4480
 2115SOL    HW2 8459   5.242   4.941   1.201  0.7481  2.0922  0.2144
 2115SOL     MW 8460   5.226   4.946   1.115  0.1690  0.1101  0.1692
 2116SOL     OW 8461   4.337   2.795   5.254 -0.3036 -0.1992  0.8398
 2116SOL    HW1 8462   4.263   2.846   5.223 -0.4792 -0.5641  0.6613
 2116SOL    HW2 8463   4.329   2.797   5.350  1.2802  2.5089  1.0213
 2116SOL     MW 8464   4.327   2.802   5.262 -0.1233  0.1008  0.8402
 2117SOL     OW 8465   3.214   5.218   0.390 -0.3338  0.5509 -0.5331
 2117SOL    HW1 8466   3.246   5.130   0.407 -1.9128 -0.0694 -0.5548
 2117SOL    HW2 8467   3.188   5.216   0.297 -0.6160  0.9454 -0.4663
 2117SOL     MW 8468   3.215   5.206   0.380 -0.5721  0.5220 -0.5274
 2118SOL     OW 8469   5.004   1.476   0.877 -0.0064 -0.1895 -0.5687
 2118SOL    HW1 8470   4.956   1.395   0.860 -0.3257  0.1452 -1.3389
 2118SOL    HW2 8471   4.991   1.492   0.970  0.1623 -1.0815 -0.3800
 2118SOL     MW 8472   4.996   1.468   0.887 -0.0257 -0.2608 -0.6431
 2119SOL     OW 8473   3.758   0.470   3.294  0.4150  0.4710 -0.0117
 2119SOL    HW1 8474   3.695   0.402   3.267 -0.0315  0.1011  1.8421
 2119SOL    HW2 8475   3.813   0.483   3.217  1.4607 -3.0938 -0.0490
 2119SOL     MW 8476   3.757   0.463   3.281  0.4917 -0.0327  0.2208
 2120SOL     OW 8477   5.069   1.724   4.029 -0.3722 -0.2072  0.3015
 2120SOL    HW1 8478   5.021   1.738   4.111  0.7728 -1.5057  1.2567
 2120SOL    HW2 8479   5.038   1.639   3.998  0.7008 -0.6985  0.5215
 2120SOL     MW 8480   5.059   1.715   4.036 -0.0883 -0.4363  0.4519
 2121SOL     OW 8481   0.050   2.789   1.621 -0.2580 -0.2114 -0.0795
 2121SOL    HW1 8482   0.030   2.809   1.530  0.3002  1.0176  0.0553
 2121SOL    HW2 8483  -0.035   2.772   1.661 -0.5361 -0.4411 -0.7450
 2121SOL     MW 8484   0.037   2.789   1.614 -0.2222 -0.0835 -0.1475
 2122SOL     OW 8485   4.539   2.412   1.744  0.0447  0.2080  0.0053
 2122SOL    HW1 8486   4.633   2.395   1.745  0.0622  0.2286 -0.7013
 2122SOL    HW2 8487   4.522   2.450   1.658 -0.2472  2.3420  0.9514
 2122SOL     MW 8488   4.549   2.414   1.733  0.0096  0.4838  0.0359
 2123SOL     OW 8489   5.319   1.854   3.984 -0.2692  0.6548  0.0985
 2123SOL    HW1 8490   5.354   1.800   3.913  0.8168  1.3586  0.0797
 2123SOL    HW2 8491   5.224   1.844   3.977 -0.1535  0.3003 -1.1309
 2123SOL     MW 8492   5.311   1.846   3.974 -0.1154  0.6995 -0.0613
 2124SOL     OW 8493   0.898   3.950   4.606 -0.6360 -0.1698  0.0677
 2124SOL    HW1 8494   0.991   3.945   4.583 -0.3890  1.3663  0.6024
 2124SOL    HW2 8495   0.855   3.976   4.524 -0.2558  1.5075  0.3675
 2124SOL     MW 8496   0.905   3.953   4.592 -0.5557  0.2415  0.1745
 2125SOL     OW 8497   4.930   5.243   4.290  0.4543 -0.6496 -0.7037
 2125SOL    HW1 8498   4.925   5.246   4.195  0.2670 -1.5469 -0.7300
 2125SOL    HW2 8499   4.839   5.233   4.319  0.5349 -0.6534 -0.4435
 2125SOL     MW 8500   4.918   5.242   4.282  0.4407 -0.7650 -0.6738
 2126SOL     OW 8501   2.177   1.932   3.251 -0.0173 -0.7261  0.2180
 2126SOL    HW1 8502   2.092   1.952   3.211  0.1747  0.2422  0.2636
 2126SOL    HW2 8503   2.215   2.018   3.270  1.2097 -1.1328 -0.3109
 2126SOL     MW 8504   2.171   1.946   3.248  0.1644 -0.6542  0.1562
 2127SOL     OW 8505   2.930   4.603   2.262 -0.2598 -0.4802 -0.0439
 2127SOL    HW1 8506   2.943   4.510   2.280  0.8665 -0.4630 -0.6610
 2127SOL    HW2 8507   2.988   4.648   2.325  0.7313 -0.2889 -1.0557
 2127SOL     MW 8508   2.939   4.597   2.272  0.0112 -0.4535 -0.2524
 2128SOL     OW 8509   3.461   2.807   0.375 -0.0798 -0.1651  0.1669
 2128SOL    HW1 8510   3.442   2.892   0.416  0.2117  1.0504 -2.0374
 2128SOL    HW2 8511   3.385   2.753   0.395 -0.5722  0.8173  1.0741
 2128SOL     MW 8512   3.449   2.811   0.383 -0.1055  0.1162  0.0009
 2129SOL     OW 8513   5.200   2.226   0.228  0.2756 -0.5931  0.0046
 2129SOL    HW1 8514   5.284   2.203   0.188  0.5192  0.2602 -0.0056
 2129SOL    HW2 8515   5.221   2.235   0.321  0.2202 -0.2865 -0.0115
 2129SOL     MW 8516   5.213   2.224   0.235  0.2997 -0.4446  0.0013
 2130SOL     OW 8517   0.917   1.793   2.341  0.2126 -0.2184  0.8142
 2130SOL    HW1 8518   0.849   1.832   2.285  2.1359  1.9436 -0.2260
 2130SOL    HW2 8519   0.914   1.700   2.321 -0.4937  0.2197 -1.4327
 2130SOL     MW 8520   0.908   1.786   2.331  0.3684  0.1144  0.3934
 2131SOL     OW 8521   3.117   2.747   5.152 -0.0229 -0.0124  0.2367
 2131SOL    HW1 8522   3.203   2.717   5.123  0.9211  0.9397  1.9419
 2131SOL    HW2 8523   3.080   2.791   5.075  1.4175  0.4070 -0.2447
 2131SOL     MW 8524   3.123   2.749   5.138  0.2823  0.1632  0.3934
 2132SOL     OW 8525   1.806   2.177   2.197 -0.1457  0.0429  0.0966
 2132SOL    HW1 8526   1.721   2.167   2.154 -0.7775 -1.4712  1.5922
 2132SOL    HW2 8527   1.815   2.271   2.211 -0.2970  0.5101 -2.4898
 2132SOL     MW 8528   1.796   2.188   2.193 -0.2459 -0.0911 -0.0431
 2133SOL     OW 8529   2.603   4.028   3.368  0.4499 -0.2493 -0.5962
 2133SOL    HW1 8530   2.689   4.064   3.389 -0.4375  0.1682  2.9582
 2133SOL    HW2 8531   2.553   4.103   3.336  1.3316 -0.5066 -2.7414
 2133SOL     MW 8532   2.608   4.042   3.367  0.4492 -0.2288 -0.4158
 2134SOL     OW 8533   2.789   5.415   1.146 -0.0406  0.0177  0.4905
 2134SOL    HW1 8534   2.749   5.497   1.116 -0.2540  0.1731  1.1752
 2134SOL    HW2 8535   2.715   5.355   1.155  0.2690 -0.6995 -1.3546
 2134SOL     MW 8536   2.774   5.418   1.143 -0.0283 -0.0542  0.3420
 2135SOL     OW 8537   4.343   0.756   2.728 -0.7717 -0.0979  0.4628
 2135SOL    HW1 8538   4.310   0.666   2.728 -0.4043 -0.2544 -0.8294
 2135SOL    HW2 8539   4.284   0.803   2.670 -1.5806  0.7659  1.9243
 2135SOL     MW 8540   4.331   0.750   2.721 -0.8282 -0.0074  0.4845
 2136SOL     OW 8541   2.651   1.171   2.758  0.0378 -0.4421 -0.5365
 2136SOL    HW1 8542   2.596   1.152   2.834  1.1719 -0.8380  0.2111
 2136SOL    HW2 8543   2.680   1.261   2.771 -0.6247 -0.1388 -1.0721
 2136SOL     MW 8544   2.648   1.180   2.769  0.0982 -0.4539 -0.5094
 2137SOL     OW 8545   4.958   1.471   0.354  0.5070  0.3653  0.1255
 2137SOL    HW1 8546   4.888   1.532   0.374  1.2595  1.3601 -0.1852
 2137SOL    HW2 8547   4.961   1.412   0.429  0.1413  1.0730  0.7027
 2137SOL     MW 8548   4.950   1.471   0.366  0.5565  0.5833  0.1596
 2138SOL     OW 8549   1.367   3.586   4.212  0.0607 -0.5353 -0.1776
 2138SOL    HW1 8550   1.315   3.602   4.290 -0.2456 -0.7773 -0.3286
 2138SOL    HW2 8551   1.396   3.672   4.183  1.0231 -0.5184  0.7773
 2138SOL     MW 8552   1.364   3.599   4.218  0.1447 -0.5642 -0.0747
 2139SOL     OW 8553   0.949   2.578   4.417 -0.6398 -0.1513  0.2071
 2139SOL    HW1 8554   0.939   2.529   4.498  0.6627 -2.0459 -0.7055
 2139SOL    HW2 8555   1.013   2.647   4.437 -0.0676 -0.8165  0.6989
 2139SOL     MW 8556   0.956   2.581   4.430 -0.3998 -0.4790  0.1532
 2140SOL     OW 8557   5.309   3.762   5.026  0.1761 -0.0446  0.3806
 2140SOL    HW1 8558   5.314   3.712   4.944 -1.0783 -0.8005  0.7352
 2140SOL    HW2 8559   5.371   3.718   5.084  2.9901  2.0123 -0.8628
 2140SOL     MW 8560   5.318   3.750   5.023  0.3757  0.1220  0.2668
 2141SOL     OW 8561   0.838   4.555   0.165 -0.0253 -0.1209  0.0404
 2141SOL    HW1 8562   0.760   4.552   0.221  0.7273 -0.9705  1.0885
 2141SOL    HW2 8563   0.814   4.616   0.095 -0.6414  1.8531  1.8475
 2141SOL     MW 8564   0.825   4.563   0.163 -0.0078  0.0231  0.4059
 2142SOL     OW 8565   1.155   4.796   4.877  0.6571  0.1790  0.1785
 2142SOL    HW1 8566   1.070   4.759   4.853 -0.2451  1.0769  1.7830
 2142SOL    HW2 8567   1.215   4.722   4.875  0.1628 -0.2491 -2.2303
 2142SOL     MW 8568   1.152   4.782   4.874  0.4783  0.2392  0.0755
 2143SOL     OW 8569   0.759   0.619   3.280 -0.2791  0.4485 -0.5445
 2143SOL    HW1 8570   0.702   0.587   3.349  0.7559  0.6917  0.4589
 2143SOL    HW2 8571   0.735   0.711   3.269  1.3947  1.2289  1.5232
 2143SOL     MW 8572   0.749   0.627   3.287  0.0677  0.5795 -0.1513
 2144SOL     OW 8573   1.575   1.346   3.995 -0.1536 -0.2454 -0.2183
 2144SOL    HW1 8574   1.511   1.409   4.028 -0.2373 -0.1268 -0.6014
 2144SOL    HW2 8575   1.641   1.399   3.950 -0.5160 -0.4707 -1.0198
 2144SOL     MW 8576   1.575   1.361   3.994 -0.2107 -0.2590 -0.3699
 2145SOL     OW 8577   1.170   4.225   3.006  0.3580 -0.8991 -0.4602
 2145SOL    HW1 8578   1.265   4.219   2.996  0.4380 -0.3158 -0.1129
 2145SOL    HW2 8579   1.137   4.230   2.916  0.8070  0.7663 -0.5635
 2145SOL     MW 8580   1.178   4.225   2.993  0.4257 -0.6112 -0.4290
 2146SOL     OW 8581   1.337   3.710   5.194  0.2365 -0.0896  0.4836
 2146SOL    HW1 8582   1.385   3.632   5.220  1.6817 -0.0164 -1.7168
 2146SOL    HW2 8583   1.279   3.728   5.268  0.2906 -2.8609  1.3283
 2146SOL     MW 8584   1.336   3.702   5.207  0.4284 -0.4350  0.3101
 2147SOL     OW 8585   0.465   3.863   3.365 -0.3926  0.4523  0.0972
 2147SOL    HW1 8586   0.409   3.808   3.312  1.0178 -1.5855  0.6052
 2147SOL    HW2 8587   0.542   3.881   3.310  2.2398 -3.6748  1.9333
 2147SOL     MW 8588   0.468   3.859   3.352  0.1249 -0.3369  0.3973
 2148SOL     OW 8589   1.317   3.998   1.816 -0.3292  0.1881  0.1753
 2148SOL    HW1 8590   1.254   3.947   1.766 -0.2179  0.8974 -0.7074
 2148SOL    HW2 8591   1.368   4.045   1.750  2.6927 -2.0774  0.6747
 2148SOL     MW 8592   1.315   3.998   1.801  0.0719 -0.0111  0.1262
 2149SOL     OW 8593   0.619   2.424   1.885 -0.1768 -0.2618 -0.3867
 2149SOL    HW1 8594   0.660   2.509   1.868 -2.1045  0.6009 -1.1148
 2149SOL    HW2 8595   0.615   2.382   1.799 -0.0746 -0.6739 -0.1907
 2149SOL     MW 8596   0.624   2.429   1.872 -0.4105 -0.2041 -0.4548
 2150SOL     OW 8597   3.805   1.225   3.205 -0.2891  1.0882 -0.1391
 2150SOL    HW1 8598   3.777   1.199   3.117 -0.2787 -1.4954  0.5218
 2150SOL    HW2 8599   3.898   1.246   3.195  0.0042 -0.2787 -0.5966
 2150SOL     MW 8600   3.813   1.224   3.192 -0.2502  0.5825 -0.1130
 2151SOL     OW 8601   0.575   0.555   0.505 -0.3204 -0.3512 -0.2238
 2151SOL    HW1 8602   0.609   0.533   0.592  0.2686  2.7743  0.4576
 2151SOL    HW2 8603   0.632   0.507   0.444  0.4691 -1.1024  1.0567
 2151SOL     MW 8604   0.586   0.546   0.508 -0.1439 -0.0473  0.0273
 2152SOL     OW 8605   3.492   0.484   0.664 -0.5913  0.6099 -0.5650
 2152SOL    HW1 8606   3.502   0.492   0.758 -1.5671 -0.8057 -0.3201
 2152SOL    HW2 8607   3.463   0.394   0.649 -0.3957  0.7783 -2.2216
 2152SOL     MW 8608   3.489   0.474   0.674 -0.6912  0.4503 -0.7457
 2153SOL     OW 8609   1.559   2.211   2.086  0.3067  0.0090 -0.3324
 2153SOL    HW1 8610   1.484   2.167   2.127  0.3811  1.3704  1.4056
 2153SOL    HW2 8611   1.552   2.189   1.994 -1.0939 -1.5332  0.0901
 2153SOL     MW 8612   1.548   2.203   2.080  0.1369 -0.0142 -0.0558
 2154SOL     OW 8613   1.907   5.278   2.057  0.5489  0.0131  0.7240
 2154SOL    HW1 8614   1.982   5.292   2.114  1.0093 -0.8767  0.3560
 2154SOL    HW2 8615   1.935   5.311   1.972 -0.1075  1.2623  0.9661
 2154SOL     MW 8616   1.920   5.284   2.053  0.5238  0.0591  0.7079
 2155SOL     OW 8617   1.632   4.532   3.974 -0.2953 -0.0943 -0.3640
 2155SOL    HW1 8618   1.548   4.557   3.933 -0.3296  0.2870 -0.0715
 2155SOL    HW2 8619   1.609   4.462   4.035 -0.6877  1.0953  0.9123
 2155SOL     MW 8620   1.618   4.527   3.976 -0.3499  0.1068 -0.1632
 2156SOL     OW 8621   1.765   3.343   0.740 -0.1844 -0.0918 -0.3309
 2156SOL    HW1 8622   1.847   3.390   0.756 -0.3482  0.3175 -0.6858
 2156SOL    HW2 8623   1.782   3.254   0.771  0.9727 -0.4809 -1.9741
 2156SOL     MW 8624   1.778   3.337   0.746 -0.0572 -0.0892 -0.5867
 2157SOL     OW 8625   3.285   0.850   4.280  0.1708 -0.2088  0.0057
 2157SOL    HW1 8626   3.240   0.786   4.224  1.4063 -1.3802  0.2868
 2157SOL    HW2 8627   3.338   0.902   4.219  0.2996 -0.4374 -0.0788
 2157SOL     MW 8628   3.286   0.848   4.265  0.3454 -0.3880  0.0309
 2158SOL     OW 8629   0.564   4.228   4.382  0.5140  0.1240  0.3983
 2158SOL    HW1 8630   0.580   4.306   4.434 -2.0826  1.0088  0.0233
 2158SOL    HW2 8631   0.551   4.260   4.293  0.2051 -0.8222  0.0922
 2158SOL     MW 8632   0.564   4.242   4.377  0.1420  0.1161  0.3111
 2159SOL     OW 8633   3.254   4.423   0.208  0.7403  0.0519 -0.0262
 2159SOL    HW1 8634   3.277   4.516   0.201  2.3317 -0.1788  1.5753
 2159SOL    HW2 8635   3.225   4.412   0.298 -2.7320 -0.3966 -1.0511
 2159SOL     MW 8636   3.254   4.434   0.218  0.4995 -0.0351  0.0476
 2160SOL     OW 8637   1.405   4.136   4.582  0.2531  0.0178  0.7297
 2160SOL    HW1 8638   1.411   4.116   4.489  1.0545  1.0637  0.5281
 2160SOL    HW2 8639   1.477   4.198   4.598 -0.8698  1.1411  1.6763
 2160SOL     MW 8640   1.415   4.142   4.572  0.2120  0.2955  0.8251
 2161SOL     OW 8641   1.280   1.130   1.985 -0.1897  0.2261  0.3108
 2161SOL    HW1 8642   1.273   1.163   2.075  0.2794  1.6979 -0.1665
 2161SOL    HW2 8643   1.360   1.170   1.951 -0.9579  0.6088 -1.1234
 2161SOL     MW 8644   1.289   1.140   1.992 -0.2280  0.4635  0.0661
 2162SOL     OW 8645   5.170   1.907   3.189 -0.3223  0.1012  0.0902
 2162SOL    HW1 8646   5.118   1.861   3.123  1.2663 -0.3754 -0.8790
 2162SOL    HW2 8647   5.248   1.852   3.201 -0.2081  0.5648  1.8207
 2162SOL     MW 8648   5.173   1.894   3.182 -0.1043  0.0995  0.1877
 2163SOL     OW 8649   2.406   4.446   1.602  0.0583 -0.2748 -0.2026
 2163SOL    HW1 8650   2.384   4.407   1.686 -1.1975  0.1172 -0.3132
 2163SOL    HW2 8651   2.465   4.518   1.623  1.6746 -1.6318  0.0856
 2163SOL     MW 8652   2.410   4.450   1.615  0.1044 -0.3983 -0.1798
 2164SOL     OW 8653   3.921   3.332   3.360  0.2070  0.4550  0.0422
 2164SOL    HW1 8654   3.903   3.289   3.443  2.5673  0.9145  0.8937
 2164SOL    HW2 8655   4.015   3.318   3.346  1.0856  4.7885  0.1761
 2164SOL     MW 8656   3.931   3.325   3.369  0.6216  1.0685  0.1684
 2165SOL     OW 8657   4.521   3.619   3.746 -0.5894 -0.5467 -0.4900
 2165SOL    HW1 8658   4.608   3.592   3.715  0.2029 -0.2106  1.3496
 2165SOL    HW2 8659   4.523   3.605   3.840 -2.5038 -0.3917 -0.3891
 2165SOL     MW 8660   4.532   3.614   3.754 -0.7331 -0.4838 -0.2416
 2166SOL     OW 8661   2.163   5.208   2.625 -0.0557  0.2176  0.3758
 2166SOL    HW1 8662   2.203   5.294   2.606  1.2031 -0.6206 -1.0717
 2166SOL    HW2 8663   2.229   5.163   2.678 -1.6805  0.8972  3.1579
 2166SOL     MW 8664   2.177   5.213   2.629 -0.1026  0.1973  0.5466
 2167SOL     OW 8665   3.834   4.661   5.036  0.1804 -0.3321  0.0448
 2167SOL    HW1 8666   3.828   4.654   4.941 -1.4547  1.0013  0.0165
 2167SOL    HW2 8667   3.756   4.617   5.069  0.6648 -0.6676  0.7823
 2167SOL     MW 8668   3.824   4.655   5.028  0.0331 -0.2044  0.1356
 2168SOL     OW 8669   1.825   2.024   4.870  0.0482  0.1715 -0.5833
 2168SOL    HW1 8670   1.839   2.059   4.958 -0.8956  0.2398 -0.4446
 2168SOL    HW2 8671   1.909   2.034   4.826  0.2341  1.1530 -0.0352
 2168SOL     MW 8672   1.837   2.030   4.875 -0.0488  0.3059 -0.4954
 2169SOL     OW 8673   3.450   0.785   1.081 -0.3333  0.0426 -0.1221
 2169SOL    HW1 8674   3.461   0.761   1.173 -1.3791 -0.7391 -0.1845
 2169SOL    HW2 8675   3.455   0.701   1.034 -2.3324  0.1109 -0.5202
 2169SOL     MW 8676   3.452   0.771   1.087 -0.7230 -0.0487 -0.1811
 2170SOL     OW 8677   2.526   0.890   4.687 -0.2376  0.3823 -0.1394
 2170SOL    HW1 8678   2.533   0.964   4.626  1.5222  0.4338  0.0947
 2170SOL    HW2 8679   2.586   0.912   4.758  0.5270 -1.3888 -0.1863
 2170SOL     MW 8680   2.534   0.903   4.688  0.0856  0.1621 -0.1154
 2171SOL     OW 8681   3.832   4.803   4.553  0.5787  0.0851  0.1105
 2171SOL    HW1 8682   3.792   4.878   4.596  2.0582 -0.2742  2.2455
 2171SOL    HW2 8683   3.822   4.731   4.617  3.0331 -0.4232  0.0110
 2171SOL     MW 8684   3.825   4.803   4.567  1.0823 -0.0260  0.3710
 2172SOL     OW 8685   3.925   5.276   2.853  0.2970  0.4554  0.2152
 2172SOL    HW1 8686   3.943   5.199   2.799  0.9585 -0.3273  1.4909
 2172SOL    HW2 8687   3.866   5.244   2.922  0.3351  1.1606  0.5909
 2172SOL     MW 8688   3.920   5.262   2.855  0.3866  0.4455  0.4266
 2173SOL     OW 8689   0.384   5.456   0.185  0.0185  0.3403  0.1757
 2173SOL    HW1 8690   0.459   5.478   0.128 -0.8438  1.0575 -0.7190
 2173SOL    HW2 8691   0.397   5.364   0.206  1.0204  0.3813 -0.1876
 2173SOL     MW 8692   0.396   5.447   0.180  0.0364  0.4373  0.0147
 2174SOL     OW 8693   4.536   2.523   1.483 -0.2645  0.3911 -0.5163
 2174SOL    HW1 8694   4.443   2.529   1.463 -0.5906 -0.8278  0.5467
 2174SOL    HW2 8695   4.570   2.456   1.424 -0.3017  0.0308 -0.1348
 2174SOL     MW 8696   4.529   2.515   1.473 -0.3110  0.1890 -0.3314
 2175SOL     OW 8697   1.047   0.269   2.303  0.3644 -0.0869 -0.6936
 2175SOL    HW1 8698   1.067   0.192   2.357  0.3033  0.0655 -0.4487
 2175SOL    HW2 8699   1.108   0.336   2.335  0.0748  0.1138 -0.5629
 2175SOL     MW 8700   1.058   0.268   2.314  0.3195 -0.0417 -0.6455
 2176SOL     OW 8701   3.049   3.873   2.594 -0.3279 -0.5388 -0.2577
 2176SOL    HW1 8702   3.113   3.924   2.543  0.9597 -1.3840  0.4808
 2176SOL    HW2 8703   3.007   3.938   2.651 -1.0557  0.2398 -1.6168
 2176SOL     MW 8704   3.052   3.888   2.595 -0.2563 -0.5473 -0.3371
 2177SOL     OW 8705   1.621   2.968   5.003  0.4476 -0.1126  0.0301
 2177SOL    HW1 8706   1.689   3.029   5.031 -0.1641 -0.5713  2.8448
 2177SOL    HW2 8707   1.669   2.891   4.973  1.1850  0.8089 -1.2167
 2177SOL     MW 8708   1.636   2.966   5.003  0.4637 -0.0533  0.2308
 2178SOL     OW 8709   1.412   5.499   2.358  0.2149 -0.2710 -0.0374
 2178SOL    HW1 8710   1.345   5.432   2.344  1.0492 -0.9531 -0.8179
 2178SOL    HW2 8711   1.477   5.457   2.414 -0.3026  0.6030  1.2789
 2178SOL     MW 8712   1.412   5.485   2.364  0.2555 -0.2464  0.0312
 2179SOL     OW 8713   4.892   0.162   1.295  0.0279 -0.5312 -0.3094
 2179SOL    HW1 8714   4.939   0.145   1.213  0.8985  2.4017 -0.5540
 2179SOL    HW2 8715   4.856   0.250   1.283  0.6239  0.2172  2.6369
 2179SOL     MW 8716   4.893   0.171   1.283  0.2157 -0.0599  0.0364
 2180SOL     OW 8717   4.598   2.878   2.112 -0.1467 -0.6893 -0.1863
 2180SOL    HW1 8718   4.570   2.927   2.035  3.1390 -0.6166 -1.4634
 2180SOL    HW2 8719   4.635   2.944   2.170 -1.0480 -0.9818  0.7629
 2180SOL     MW 8720   4.599   2.893   2.110  0.1585 -0.7175 -0.2283
 2181SOL     OW 8721   3.244   1.164   4.090 -0.2585 -0.0433 -0.5549
 2181SOL    HW1 8722   3.195   1.104   4.033  0.1220 -0.6644 -0.2458
 2181SOL    HW2 8723   3.207   1.150   4.177  0.0903 -0.1158 -0.4142
 2181SOL     MW 8724   3.233   1.154   4.094 -0.1651 -0.1321 -0.4973
 2182SOL     OW 8725   5.085   1.923   4.909 -0.1574 -0.0062  0.2893
 2182SOL    HW1 8726   5.029   1.909   4.833 -1.3538 -0.6710  1.2574
 2182SOL    HW2 8727   5.155   1.858   4.899 -0.3443 -0.1323 -0.2140
 2182SOL     MW 8728   5.087   1.913   4.898 -0.3345 -0.1075  0.3488
 2183SOL     OW 8729   2.458   3.736   1.361  0.6286  0.4493 -0.3306
 2183SOL    HW1 8730   2.391   3.794   1.324 -0.4511 -0.8952 -0.5807
 2183SOL    HW2 8731   2.456   3.755   1.455  0.1994  0.7149 -0.3878
 2183SOL     MW 8732   2.449   3.746   1.368  0.4355  0.3112 -0.3699
 2184SOL     OW 8733   0.721   4.567   4.757 -0.4293  0.2946 -1.0455
 2184SOL    HW1 8734   0.803   4.616   4.756 -1.2537  1.7445 -0.9581
 2184SOL    HW2 8735   0.736   4.496   4.819  0.2653  1.4454  0.1549
 2184SOL     MW 8736   0.733   4.564   4.765 -0.4459  0.6275 -0.8806
 2185SOL     OW 8737   0.600   0.183   4.810 -0.2466 -0.2212  0.6192
 2185SOL    HW1 8738   0.681   0.164   4.764 -0.5330 -1.2684  0.5241
 2185SOL    HW2 8739   0.605   0.131   4.890 -0.9909 -0.6116  0.4247
 2185SOL     MW 8740   0.611   0.174   4.814 -0.3786 -0.4052  0.5821
 2186SOL     OW 8741   2.962   2.549   3.300  0.4705 -0.0993 -0.0156
 2186SOL    HW1 8742   2.876   2.540   3.340 -0.6353  0.5450 -2.1257
 2186SOL    HW2 8743   3.023   2.516   3.367 -1.2331  0.8810  2.1599
 2186SOL     MW 8744   2.959   2.544   3.314  0.1108  0.1086 -0.0073
 2187SOL     OW 8745   1.690   0.450   5.072 -0.7546  0.6304 -0.8644
 2187SOL    HW1 8746   1.716   0.359   5.057 -0.0383  0.9422 -1.5980
 2187SOL    HW2 8747   1.607   0.444   5.120 -1.9692 -0.4433 -2.9426
 2187SOL     MW 8748   1.683   0.438   5.076 -0.8184  0.5329 -1.2243
 2188SOL     OW 8749   4.929   0.259   0.672  0.2378 -0.2225  0.1355
 2188SOL    HW1 8750   4.909   0.194   0.605  0.2367 -2.8412  2.4834
 2188SOL    HW2 8751   4.844   0.295   0.697  0.2388  0.7695 -1.1704
 2188SOL     MW 8752   4.915   0.255   0.667  0.2378 -0.4307  0.2689
 2189SOL     OW 8753   5.185   3.260   3.091 -0.1336 -0.4841 -0.5279
 2189SOL    HW1 8754   5.191   3.277   3.185 -0.3603  1.2071 -0.7935
 2189SOL    HW2 8755   5.268   3.217   3.070  0.2139 -0.2480  0.3151
 2189SOL     MW 8756   5.197   3.257   3.101 -0.1181 -0.2374 -0.4540
 2190SOL     OW 8757   1.816   5.409   5.149 -0.0164 -0.4916 -0.1533
 2190SOL    HW1 8758   1.897   5.442   5.111 -0.7902  0.9548 -0.6053
 2190SOL    HW2 8759   1.790   5.337   5.091 -0.0464  0.2880 -1.1347
 2190SOL     MW 8760   1.823   5.404   5.136 -0.1193 -0.2066 -0.3368
 2191SOL     OW 8761   1.149   2.316   2.194 -0.1129  0.1036  0.0144
 2191SOL    HW1 8762   1.221   2.271   2.150 -0.0569  0.1230  0.0858
 2191SOL    HW2 8763   1.133   2.265   2.273  0.5105  0.6782  0.5224
 2191SOL     MW 8764   1.156   2.304   2.199 -0.0259  0.1797  0.0886
 2192SOL     OW 8765   3.258   4.601   0.734  0.2213  0.3324  0.2745
 2192SOL    HW1 8766   3.224   4.557   0.812  1.8717  0.7427  1.2791
 2192SOL    HW2 8767   3.353   4.599   0.745  0.5307 -0.0483 -2.0098
 2192SOL     MW 8768   3.266   4.595   0.745  0.4722  0.3362  0.1107
 2193SOL     OW 8769   3.135   0.808   1.127 -0.0608  0.2343  0.4754
 2193SOL    HW1 8770   3.119   0.894   1.166 -0.5875 -0.6527  2.3311
 2193SOL    HW2 8771   3.229   0.805   1.112 -0.1383  1.4394 -0.4532
 2193SOL     MW 8772   3.145   0.818   1.130 -0.1381  0.2750  0.5941
 2194SOL     OW 8773   1.724   5.027   4.448 -0.4548 -0.3104 -0.2595
 2194SOL    HW1 8774   1.765   5.028   4.534  1.8069  1.3858 -1.2752
 2194SOL    HW2 8775   1.632   5.047   4.466  0.2170  1.4448  1.7014
 2194SOL     MW 8776   1.717   5.030   4.461 -0.0793  0.1314 -0.1385
 2195SOL     OW 8777   4.579   2.557   4.578  0.1168 -0.6531  0.2038
 2195SOL    HW1 8778   4.592   2.628   4.641  0.2461 -0.6863  0.2147
 2195SOL    HW2 8779   4.590   2.477   4.629 -1.1650 -0.7017  0.4417
 2195SOL     MW 8780   4.582   2.556   4.593 -0.0307 -0.6636  0.2356
 2196SOL     OW 8781   4.054   0.621   5.292  0.3820  0.4626 -0.2010
 2196SOL    HW1 8782   4.046   0.641   5.198 -0.7946  0.6802 -0.0663
 2196SOL    HW2 8783   3.997   0.685   5.335  3.0070  2.2432  0.9401
 2196SOL     MW 8784   4.046   0.632   5.285  0.5674  0.7184 -0.0376
 2197SOL     OW 8785   4.382   0.683   1.700  0.0125 -0.0003 -0.0865
 2197SOL    HW1 8786   4.332   0.678   1.781 -1.0111  1.7756 -0.5702
 2197SOL    HW2 8787   4.318   0.665   1.631  0.6311 -0.3462 -0.5871
 2197SOL     MW 8788   4.367   0.680   1.701 -0.0394  0.1828 -0.2125
 2198SOL     OW 8789   1.216   0.610   4.055  0.3024  0.3873  0.1516
 2198SOL    HW1 8790   1.251   0.552   4.123 -0.3319 -0.4764 -0.2418
 2198SOL    HW2 8791   1.287   0.617   3.991  0.3691  0.0054  0.1797
 2198SOL     MW 8792   1.230   0.603   4.055  0.2298  0.2278  0.1048
 2199SOL     OW 8793   1.779   3.146   5.346  0.2975 -0.1369  0.0190
 2199SOL    HW1 8794   1.698   3.105   5.318  0.6874  0.3186 -1.8835
 2199SOL    HW2 8795   1.761   3.240   5.346  1.0417  0.0367 -1.3163
 2199SOL     MW 8796   1.767   3.153   5.343  0.4427 -0.0563 -0.3954
 2200SOL     OW 8797   1.719   2.799   5.276  0.2546 -0.1606  0.2096
 2200SOL    HW1 8798   1.650   2.851   5.318 -2.3968 -2.1143 -1.3414
 2200SOL    HW2 8799   1.703   2.710   5.307  1.4226 -0.8378 -1.0377
 2200SOL     MW 8800   1.708   2.794   5.285  0.0647 -0.4974 -0.1486
 2201SOL     OW 8801   0.125   0.050   0.361 -0.2481  0.3936  0.0290
 2201SOL    HW1 8802   0.049   0.084   0.408  1.0203  1.6805  1.2656
 2201SOL    HW2 8803   0.098   0.048   0.270 -2.2384 -0.5961  0.6045
 2201SOL     MW 8804   0.112   0.054   0.356 -0.3405  0.4317  0.2610
 2202SOL     OW 8805   2.541   2.392   3.599  0.6660 -0.1919  0.6255
 2202SOL    HW1 8806   2.516   2.319   3.542 -0.5542 -1.0767  2.2381
 2202SOL    HW2 8807   2.464   2.450   3.598  1.0051  0.2628  0.6473
 2202SOL     MW 8808   2.528   2.390   3.591  0.5532 -0.2470  0.8347
 2203SOL     OW 8809   1.168   2.496   1.917  0.3104 -0.4403 -0.0934
 2203SOL    HW1 8810   1.257   2.501   1.953  0.6581  1.4964 -1.1375
 2203SOL    HW2 8811   1.179   2.457   1.830  0.0898 -0.4850 -0.1018
 2203SOL     MW 8812   1.180   2.491   1.911  0.3266 -0.1981 -0.2281
 2204SOL     OW 8813   5.364   1.060   1.816  0.2259 -0.6694  0.0198
 2204SOL    HW1 8814   5.272   1.086   1.809  0.3090 -0.1002  0.8942
 2204SOL    HW2 8815   5.406   1.095   1.738  0.0318  0.5463  0.4369
 2204SOL     MW 8816   5.358   1.067   1.805  0.2117 -0.4409  0.1851
 2205SOL     OW 8817   3.846   1.492   2.431  0.0810  0.2454  0.2998
 2205SOL    HW1 8818   3.938   1.520   2.438  0.5271 -1.5086  2.3659
 2205SOL    HW2 8819   3.850   1.404   2.394 -0.7402 -0.0222  0.8248
 2205SOL     MW 8820   3.859   1.485   2.427  0.0330 -0.0134  0.6315
 2206SOL     OW 8821   4.042   1.205   0.892 -0.0525 -0.6150 -0.2973
 2206SOL    HW1 8822   3.966   1.149   0.876  0.3416 -0.9798 -0.9246
 2206SOL    HW2 8823   4.025   1.244   0.978 -0.5442 -1.3510 -0.0448
 2206SOL     MW 8824   4.030   1.203   0.901 -0.0650 -0.7559 -0.3453
 2207SOL     OW 8825   5.225   1.866   0.795 -0.3016 -0.2724 -0.0054
 2207SOL    HW1 8826   5.167   1.803   0.752  2.3166 -0.9827 -2.8517
 2207SOL    HW2 8827   5.192   1.952   0.768 -0.6136 -0.6240 -0.7664
 2207SOL     MW 8828   5.214   1.869   0.786 -0.0064 -0.4083 -0.4672
 2208SOL     OW 8829   0.992   4.416   0.425  0.0852  0.6873  0.4072
 2208SOL    HW1 8830   1.067   4.357   0.435 -0.5024 -0.2277 -0.3549
 2208SOL    HW2 8831   1.025   4.489   0.373  0.3224  0.0297 -0.3748
 2208SOL     MW 8832   1.006   4.418   0.420  0.0403  0.4860  0.2096
 2209SOL     OW 8833   4.380   0.098   3.164 -0.1951  0.0314 -0.4401
 2209SOL    HW1 8834   4.303   0.046   3.188  1.1157 -2.0195 -0.4431
 2209SOL    HW2 8835   4.396   0.154   3.240 -0.3088 -1.2342  0.5469
 2209SOL     MW 8836   4.372   0.099   3.177 -0.0418 -0.3932 -0.3141
 2210SOL     OW 8837   4.773   3.556   1.477  0.4836 -0.2990 -0.5529
 2210SOL    HW1 8838   4.794   3.487   1.540  1.2397 -1.2569 -1.7909
 2210SOL    HW2 8839   4.684   3.583   1.499  0.5669 -0.9254  0.6236
 2210SOL     MW 8840   4.764   3.550   1.488  0.5911 -0.5018 -0.5608
 2211SOL     OW 8841   5.430   4.382   3.074  0.1817  0.2019  0.0233
 2211SOL    HW1 8842   5.385   4.363   2.991 -1.5479  1.9643  0.4882
 2211SOL    HW2 8843   5.468   4.298   3.100  0.7442 -0.4174 -2.5042
 2211SOL     MW 8844   5.429   4.369   3.067  0.0323  0.3482 -0.2407
 2212SOL     OW 8845   0.027   2.893   0.121 -0.3384  0.4236  0.1195
 2212SOL    HW1 8846   0.055   2.942   0.198 -0.3860  0.2961  0.2186
 2212SOL    HW2 8847   0.092   2.914   0.054 -1.0845  1.6796 -0.2507
 2212SOL     MW 8848   0.039   2.902   0.122 -0.4400  0.5680  0.0848
 2213SOL     OW 8849   3.708   1.482   4.220 -0.2282 -0.5283 -0.3834
 2213SOL    HW1 8850   3.674   1.512   4.136 -1.6729 -0.9539  0.0104
 2213SOL    HW2 8851   3.633   1.488   4.279  0.5886 -0.8520  0.7178
 2213SOL     MW 8852   3.694   1.486   4.217 -0.3086 -0.6242 -0.1920
 2214SOL     OW 8853   0.335   0.178   1.642  0.6449  0.8823 -0.4546
 2214SOL    HW1 8854   0.313   0.089   1.612 -1.3639  0.5445  1.7398
 2214SOL    HW2 8855   0.427   0.173   1.666  0.1383 -1.2254  1.3792
 2214SOL     MW 8856   0.344   0.166   1.641  0.3229  0.5693  0.0610
 2215SOL     OW 8857   3.133   2.700   3.588 -0.6654  0.3171  0.2207
 2215SOL    HW1 8858   3.108   2.750   3.510  0.8552  0.5498 -0.1430
 2215SOL    HW2 8859   3.150   2.612   3.555 -0.7142  0.2345  0.4157
 2215SOL     MW 8860   3.132   2.695   3.574 -0.4770  0.3363  0.1991
 2216SOL     OW 8861   2.619   1.212   3.514 -0.4620  0.2734  0.0695
 2216SOL    HW1 8862   2.561   1.268   3.565 -0.3645  1.6509 -1.2449
 2216SOL    HW2 8863   2.561   1.145   3.476 -0.7911  0.2199  0.6652
 2216SOL     MW 8864   2.604   1.210   3.515 -0.4917  0.4429 -0.0225
 2217SOL     OW 8865   4.135   2.276   0.112  0.1151  0.0829 -0.6815
 2217SOL    HW1 8866   4.176   2.345   0.165  1.4196  0.3984 -2.0252
 2217SOL    HW2 8867   4.161   2.297   0.022 -2.0613 -0.4047 -1.4779
 2217SOL     MW 8868   4.144   2.288   0.107  0.0035  0.0609 -0.9555
 2218SOL     OW 8869   2.665   5.094   0.906 -0.9115 -0.2378  0.4467
 2218SOL    HW1 8870   2.634   5.118   0.819 -2.7152  1.3932  1.4522
 2218SOL    HW2 8871   2.636   5.004   0.919  4.0042 -2.6479 -2.5456
 2218SOL     MW 8872   2.657   5.086   0.897 -0.5131 -0.3376  0.1923
 2219SOL     OW 8873   0.089   1.569   5.431  0.0192  0.0732 -0.1111
 2219SOL    HW1 8874   0.077   1.600   5.521  2.0199  0.5516  0.0372
 2219SOL    HW2 8875   0.081   1.648   5.377  0.8049  0.1355 -0.1470
 2219SOL     MW 8876   0.086   1.583   5.435  0.3759  0.1425 -0.0968
 2220SOL     OW 8877   1.544   1.598   1.539  0.2818 -0.1820  0.1707
 2220SOL    HW1 8878   1.587   1.670   1.586 -1.0098  0.2203  0.7739
 2220SOL    HW2 8879   1.578   1.605   1.450  1.1657  0.3597  0.5325
 2220SOL     MW 8880   1.554   1.608   1.534  0.2296 -0.0611  0.2942
 2221SOL     OW 8881   4.753   0.622   2.238 -0.1951 -0.1214  0.2170
 2221SOL    HW1 8882   4.687   0.553   2.233 -0.3766 -0.0468  1.3183
 2221SOL    HW2 8883   4.825   0.583   2.288  0.4303 -0.0676 -0.6249
 2221SOL     MW 8884   4.754   0.608   2.244 -0.1382 -0.1050  0.2502
 2222SOL     OW 8885   2.635   4.337   2.379 -0.0011  0.2357 -0.3556
 2222SOL    HW1 8886   2.632   4.303   2.289 -2.7617 -1.1862  0.1640
 2222SOL    HW2 8887   2.548   4.319   2.414  0.1719  3.0250  1.8302
 2222SOL     MW 8888   2.624   4.330   2.372 -0.3324  0.4108 -0.0093
 2223SOL     OW 8889   0.082   2.668   3.964  0.3785  0.0835 -0.0061
 2223SOL    HW1 8890   0.168   2.657   4.005  1.7575 -0.4508 -2.8289
 2223SOL    HW2 8891   0.069   2.763   3.962  0.7998  0.1629  0.6120
 2223SOL     MW 8892   0.091   2.679   3.969  0.6089  0.0253 -0.2883
 2224SOL     OW 8893   3.958   0.481   1.695  0.2004 -0.1831 -0.8165
 2224SOL    HW1 8894   4.007   0.457   1.773  0.9282  0.4716 -1.0646
 2224SOL    HW2 8895   3.980   0.573   1.680 -1.0650  0.1245 -0.9583
 2224SOL     MW 8896   3.967   0.490   1.703  0.1316 -0.0599 -0.8664
 2225SOL     OW 8897   3.266   4.364   3.720  0.2806 -0.2068 -0.2126
 2225SOL    HW1 8898   3.281   4.456   3.698 -0.7866 -0.2240 -1.0856
 2225SOL    HW2 8899   3.193   4.366   3.782  1.4798 -0.3613  1.2720
 2225SOL     MW 8900   3.258   4.376   3.725  0.2975 -0.2287 -0.1343
 2226SOL     OW 8901   0.013   4.703   2.918 -0.2644  0.0411 -0.3230
 2226SOL    HW1 8902   0.000   4.781   2.864  0.6638  0.0311 -0.5774
 2226SOL    HW2 8903   0.036   4.634   2.855 -0.3816 -0.2637 -0.0321
 2226SOL     MW 8904   0.014   4.704   2.903 -0.1606  0.0008 -0.3183
 2227SOL     OW 8905   1.649   5.000   1.373 -0.2752  0.3559 -0.6214
 2227SOL    HW1 8906   1.593   4.935   1.414  0.5520  0.2374  0.3601
 2227SOL    HW2 8907   1.627   4.996   1.280 -0.9212 -0.6297 -0.4361
 2227SOL     MW 8908   1.639   4.991   1.366 -0.2520  0.2145 -0.4720
 2228SOL     OW 8909   4.510   0.941   1.407 -0.0987 -0.2056 -0.4207
 2228SOL    HW1 8910   4.511   1.035   1.393  1.5063 -0.3269 -1.3705
 2228SOL    HW2 8911   4.527   0.931   1.501 -1.8394  0.4480 -0.0055
 2228SOL     MW 8912   4.513   0.951   1.418 -0.1161 -0.1375 -0.4891
 2229SOL     OW 8913   0.653   2.678   3.315 -0.4147 -0.3021  0.1648
 2229SOL    HW1 8914   0.629   2.689   3.407 -0.5361  2.7086 -0.1371
 2229SOL    HW2 8915   0.734   2.728   3.305  0.1777 -1.4678 -1.1642
 2229SOL     MW 8916   0.660   2.686   3.326 -0.3544 -0.0659 -0.0440
 2230SOL     OW 8917   1.370   4.562   3.910  0.3763 -0.1409  0.3797
 2230SOL    HW1 8918   1.349   4.655   3.916  2.0668  0.3301 -0.5634
 2230SOL    HW2 8919   1.326   4.532   3.831 -0.7219 -0.3396  1.0354
 2230SOL     MW 8920   1.362   4.570   3.901  0.4521 -0.1060  0.3429
 2231SOL     OW 8921   0.704   1.109   4.976 -0.1207  0.1493 -0.4782
 2231SOL    HW1 8922   0.699   1.151   4.890 -1.1921  2.4662  0.6334
 2231SOL    HW2 8923   0.633   1.045   4.976 -1.4930  1.6321 -0.6032
 2231SOL     MW 8924   0.694   1.106   4.965 -0.4335  0.6357 -0.3519
 2232SOL     OW 8925   4.580   5.101   4.919  0.0810  0.3861 -0.0334
 2232SOL    HW1 8926   4.559   5.060   4.835 -1.1224  1.8801 -0.5172
 2232SOL    HW2 8927   4.675   5.101   4.923  0.1386 -1.4474 -0.4772
 2232SOL     MW 8928   4.589   5.096   4.909 -0.0656  0.3426 -0.1522
 2233SOL     OW 8929   5.149   0.171   4.063 -0.3127  0.2935 -0.3081
 2233SOL    HW1 8930   5.226   0.119   4.086 -0.2287  0.7716  0.5314
 2233SOL    HW2 8931   5.109   0.193   4.147 -1.0738  0.5025 -0.7116
 2233SOL     MW 8932   5.154   0.167   4.077 -0.3994  0.3814 -0.2523
 2234SOL     OW 8933   2.314   1.119   4.476  0.3396 -0.4178 -0.4331
 2234SOL    HW1 8934   2.254   1.082   4.541 -0.5323  1.4268 -0.1252
 2234SOL    HW2 8935   2.345   1.201   4.515  1.2121 -0.1593 -1.6040
 2234SOL     MW 8936   2.310   1.124   4.490  0.3397 -0.1486 -0.5436
 2235SOL     OW 8937   3.680   1.136   3.937 -0.2095 -0.1148 -0.0755
 2235SOL    HW1 8938   3.723   1.220   3.922 -1.3345  0.5687  0.4380
 2235SOL    HW2 8939   3.600   1.157   3.985  0.8321 -1.7118  2.5988
 2235SOL     MW 8940   3.676   1.149   3.942 -0.2202 -0.2317  0.3325
 2236SOL     OW 8941   1.190   3.377   4.144  0.2251  0.1160  0.1295
 2236SOL    HW1 8942   1.248   3.449   4.170 -0.8850  1.2753 -0.4450
 2236SOL    HW2 8943   1.241   3.298   4.159  1.0580  0.9413  1.9696
 2236SOL     MW 8944   1.204   3.376   4.150  0.1896  0.3700  0.2915
 2237SOL     OW 8945   3.560   5.168   3.370  0.4178 -0.1405 -0.0838
 2237SOL    HW1 8946   3.646   5.147   3.406  0.6288 -0.1680 -0.5868
 2237SOL    HW2 8947   3.579   5.217   3.290 -0.0334 -0.1550 -0.2020
 2237SOL     MW 8948   3.573   5.171   3.364  0.3871 -0.1459 -0.1633
 2238SOL     OW 8949   4.057   4.640   4.194  0.0018 -0.2706  0.4436
 2238SOL    HW1 8950   3.967   4.649   4.226  0.0118  0.4684  0.2776
 2238SOL    HW2 8951   4.110   4.690   4.256  0.0722  0.8233 -0.4633
 2238SOL     MW 8952   4.052   4.648   4.206  0.0121 -0.0359  0.3063
 2239SOL     OW 8953   2.527   0.073   0.710  0.2385 -0.5311 -0.5136
 2239SOL    HW1 8954   2.519   0.005   0.644  2.4579 -0.0696 -1.3472
 2239SOL    HW2 8955   2.458   0.053   0.774 -2.1171 -0.8741 -3.0046
 2239SOL     MW 8956   2.518   0.062   0.710  0.2210 -0.5160 -0.9392
 2240SOL     OW 8957   4.414   1.756   1.420 -0.0428  0.3464 -0.1303
 2240SOL    HW1 8958   4.476   1.796   1.359  0.2108 -0.6932 -0.5853
 2240SOL    HW2 8959   4.334   1.746   1.368  0.3971 -1.2183 -0.5585
 2240SOL     MW 8960   4.412   1.760   1.405  0.0459  0.0130 -0.2434
 2241SOL     OW 8961   2.432   3.430   5.317  0.6231 -0.6870 -0.3023
 2241SOL    HW1 8962   2.448   3.353   5.261  1.2168 -0.1647 -0.8645
 2241SOL    HW2 8963   2.356   3.406   5.369  1.0663 -1.8386 -0.1538
 2241SOL     MW 8964   2.425   3.417   5.316  0.7558 -0.7675 -0.3552
 2242SOL     OW 8965   0.457   3.286   2.202 -0.1384  0.0903 -0.4768
 2242SOL    HW1 8966   0.472   3.251   2.114 -2.9318  1.0971 -1.4590
 2242SOL    HW2 8967   0.505   3.369   2.203 -1.1339  0.7006 -1.5641
 2242SOL     MW 8968   0.465   3.293   2.191 -0.6234  0.2973 -0.7417
 2243SOL     OW 8969   1.721   4.965   2.863 -0.5753 -0.1585 -0.4815
 2243SOL    HW1 8970   1.656   4.894   2.858 -0.0146 -0.7493  0.3195
 2243SOL    HW2 8971   1.693   5.027   2.796 -2.1201 -0.2750 -0.0054
 2243SOL     MW 8972   1.709   4.964   2.854 -0.7012 -0.2490 -0.3180
 2244SOL     OW 8973   4.729   3.503   3.612  0.0517 -0.3285  0.4032
 2244SOL    HW1 8974   4.808   3.555   3.595  0.4591 -1.1750 -0.4146
 2244SOL    HW2 8975   4.759   3.434   3.672  0.4235 -1.7531 -1.3315
 2244SOL     MW 8976   4.743   3.501   3.618  0.1515 -0.6192  0.0765
 2245SOL     OW 8977   4.425   5.350   1.826 -0.2527 -0.0965 -0.3963
 2245SOL    HW1 8978   4.508   5.370   1.869 -0.6840 -0.1855  0.4984
 2245SOL    HW2 8979   4.358   5.384   1.885 -0.9194 -1.8564 -0.0815
 2245SOL     MW 8980   4.427   5.357   1.839 -0.3933 -0.3332 -0.2415
 2246SOL     OW 8981   1.958   1.447   5.019  0.3170  0.2285  0.0550
 2246SOL    HW1 8982   1.947   1.398   4.937  0.3847 -1.0631  0.7907
 2246SOL    HW2 8983   1.977   1.536   4.991  1.7663 -0.4653 -1.3709
 2246SOL     MW 8984   1.959   1.452   5.005  0.5112 -0.0256 -0.0334
 2247SOL     OW 8985   1.682   2.367   3.937 -0.2229 -0.0208 -0.3726
 2247SOL    HW1 8986   1.632   2.443   3.908  0.7727  0.2047 -1.6175
 2247SOL    HW2 8987   1.760   2.367   3.881  1.7566  0.3099  2.2285
 2247SOL     MW 8988   1.686   2.376   3.926  0.1580  0.0504 -0.1990
 2248SOL     OW 8989   2.363   3.272   2.979  0.1491 -1.2641  0.4813
 2248SOL    HW1 8990   2.427   3.331   3.017  1.2009 -1.7990 -0.4041
 2248SOL    HW2 8991   2.355   3.200   3.042 -2.5695  0.5963  2.5317
 2248SOL     MW 8992   2.370   3.270   2.992 -0.0643 -1.0945  0.6305
 2249SOL     OW 8993   0.237   0.559   3.299 -0.2966  0.2413  0.1207
 2249SOL    HW1 8994   0.152   0.577   3.260 -0.2335 -0.4368 -0.3439
 2249SOL    HW2 8995   0.242   0.618   3.375 -0.7832  0.9485 -0.3822
 2249SOL     MW 8996   0.227   0.569   3.304 -0.3508  0.2450 -0.0032
 2250SOL     OW 8997   0.242   3.400   5.121  0.2916  0.2094 -0.2139
 2250SOL    HW1 8998   0.185   3.331   5.156  2.3243 -1.6480 -0.3338
 2250SOL    HW2 8999   0.237   3.470   5.185  0.4060 -1.2557  1.4744
 2250SOL     MW 9000   0.234   3.400   5.134  0.5664 -0.2159 -0.0131
 2251SOL     OW 9001   2.180   1.632   2.422 -0.2953 -0.1835 -0.1642
 2251SOL    HW1 9002   2.195   1.540   2.405  0.1468  0.1310 -1.5551
 2251SOL    HW2 9003   2.168   1.672   2.336 -1.6878  0.8653  0.4618
 2251SOL     MW 9004   2.181   1.626   2.409 -0.4170 -0.0090 -0.2621
 2252SOL     OW 9005   4.888   2.142   3.122  0.4400 -0.4512  0.1716
 2252SOL    HW1 9006   4.873   2.237   3.125  0.6589 -0.3578 -1.1234
 2252SOL    HW2 9007   4.860   2.111   3.208 -3.0971  0.2823 -0.5658
 2252SOL     MW 9008   4.882   2.150   3.133  0.0152 -0.3453 -0.0886
 2253SOL     OW 9009   1.931   1.558   2.243  0.1198 -0.2757  0.2972
 2253SOL    HW1 9010   1.936   1.653   2.230  1.1567 -0.1826  1.2415
 2253SOL    HW2 9011   1.838   1.538   2.236 -0.2204  0.9527  1.0469
 2253SOL     MW 9012   1.920   1.568   2.240  0.2090 -0.1065  0.5141
 2254SOL     OW 9013   4.649   4.489   0.570  0.0018  0.6017 -0.3726
 2254SOL    HW1 9014   4.734   4.495   0.526  1.0788  0.1438  1.5202
 2254SOL    HW2 9015   4.648   4.565   0.629 -1.4485  1.2736 -1.2242
 2254SOL     MW 9016   4.660   4.500   0.572 -0.0460  0.6291 -0.2393
 2255SOL     OW 9017   2.631   0.727   4.005  0.7201 -0.4403 -0.6508
 2255SOL    HW1 9018   2.665   0.637   4.003 -0.3673 -0.9091  0.4439
 2255SOL    HW2 9019   2.656   0.760   4.091  0.4176  0.0280 -0.7425
 2255SOL     MW 9020   2.639   0.720   4.016  0.5422 -0.4404 -0.5224
 2256SOL     OW 9021   4.826   5.338   2.149  0.1900 -0.2842  0.2215
 2256SOL    HW1 9022   4.848   5.349   2.242  2.6165  0.9996 -0.4261
 2256SOL    HW2 9023   4.910   5.336   2.105 -0.8960 -1.4344 -1.9431
 2256SOL     MW 9024   4.839   5.339   2.156  0.3616 -0.2671 -0.1385
 2257SOL     OW 9025   0.412   0.810   2.023 -0.1972  0.1143  0.0297
 2257SOL    HW1 9026   0.468   0.887   2.027  1.0825 -0.7347 -0.8372
 2257SOL    HW2 9027   0.361   0.821   1.943 -1.3101  0.8927  0.8247
 2257SOL     MW 9028   0.413   0.821   2.013 -0.1759  0.1053  0.0205
 2258SOL     OW 9029   1.634   1.100   4.991  0.0038 -0.7606  0.1694
 2258SOL    HW1 9030   1.717   1.103   4.945  0.4776  1.4448  1.0636
 2258SOL    HW2 9031   1.639   1.021   5.046  2.2241  0.2112  1.4716
 2258SOL     MW 9032   1.645   1.090   4.992  0.3487 -0.3539  0.4505
 2259SOL     OW 9033   3.038   2.874   4.934  0.2740  0.3776 -0.2158
 2259SOL    HW1 9034   2.944   2.879   4.914  0.1961  0.6331  0.1877
 2259SOL    HW2 9035   3.072   2.809   4.874 -0.1815  0.2255 -0.3152
 2259SOL     MW 9036   3.030   2.866   4.924  0.2057  0.3908 -0.1769
 2260SOL     OW 9037   1.741   1.208   4.563  0.1027 -0.6111  0.2365
 2260SOL    HW1 9038   1.649   1.227   4.541  0.3688  1.5399  0.7706
 2260SOL    HW2 9039   1.748   1.112   4.556 -1.9091 -0.7396 -0.8016
 2260SOL     MW 9040   1.730   1.198   4.559 -0.1207 -0.3522  0.1720
 2261SOL     OW 9041   1.829   1.233   2.561  0.2342  0.0137 -0.0408
 2261SOL    HW1 9042   1.889   1.174   2.516  2.2013  2.5438 -1.0007
 2261SOL    HW2 9043   1.800   1.184   2.638  0.2190 -2.8297 -1.7430
 2261SOL     MW 9044   1.833   1.219   2.565  0.4841 -0.0264 -0.3816
 2262SOL     OW 9045   4.249   4.737   4.408 -0.5672 -0.0504  0.0457
 2262SOL    HW1 9046   4.199   4.786   4.474 -1.6192 -3.0910  1.7335
 2262SOL    HW2 9047   4.330   4.714   4.453 -0.0229  0.2695 -0.7694
 2262SOL     MW 9048   4.253   4.740   4.422 -0.6322 -0.3987  0.1575
 2263SOL     OW 9049   0.584   3.193   4.860 -0.2460 -0.3694 -0.0677
 2263SOL    HW1 9050   0.540   3.255   4.801 -0.6757 -0.6927 -0.0920
 2263SOL    HW2 9051   0.664   3.168   4.813 -0.5444 -0.5584 -0.4790
 2263SOL     MW 9052   0.589   3.198   4.846 -0.3392 -0.4350 -0.1235
 2264SOL     OW 9053   3.755   0.774   0.360  0.0891 -0.3933 -0.2069
 2264SOL    HW1 9054   3.760   0.697   0.418  0.5332 -0.5441 -0.4425
 2264SOL    HW2 9055   3.845   0.806   0.355 -0.3726  1.3457  1.4884
 2264SOL     MW 9056   3.767   0.768   0.367  0.0868 -0.1900 -0.0201
 2265SOL     OW 9057   2.567   4.156   4.029 -0.5293  0.0876  0.0549
 2265SOL    HW1 9058   2.520   4.073   4.031 -0.2471 -0.0704  0.2299
 2265SOL    HW2 9059   2.651   4.138   4.072 -1.1603  0.8778  1.7385
 2265SOL     MW 9060   2.572   4.143   4.035 -0.5739  0.1686  0.2928
 2266SOL     OW 9061   3.878   5.344   0.891 -0.2294 -0.6058 -0.3016
 2266SOL    HW1 9062   3.827   5.417   0.854 -0.9462 -0.5613  0.7319
 2266SOL    HW2 9063   3.872   5.357   0.986  0.6520 -1.3376 -0.1353
 2266SOL     MW 9064   3.870   5.355   0.898 -0.2083 -0.6938 -0.1480
 2267SOL     OW 9065   3.429   2.215   0.232 -0.2384 -0.0305  0.2039
 2267SOL    HW1 9066   3.504   2.225   0.292  0.8473  1.0578 -1.2464
 2267SOL    HW2 9067   3.461   2.156   0.164 -1.1477 -0.5548  0.2201
 2267SOL     MW 9068   3.443   2.209   0.231 -0.2159  0.0417  0.0203
 2268SOL     OW 9069   2.563   2.835   4.470  0.0068 -0.1070 -0.0275
 2268SOL    HW1 9070   2.478   2.878   4.468 -1.1895 -2.3613 -0.9946
 2268SOL    HW2 9071   2.544   2.743   4.451  2.4218 -1.0958  1.8162
 2268SOL     MW 9072   2.550   2.829   4.467  0.1628 -0.5222  0.0847
 2269SOL     OW 9073   4.285   1.690   3.847  0.0190 -0.2014  0.1458
 2269SOL    HW1 9074   4.344   1.742   3.794 -1.2852  1.8336  0.5764
 2269SOL    HW2 9075   4.207   1.745   3.858 -1.1154 -1.9251  1.3161
 2269SOL     MW 9076   4.282   1.704   3.842 -0.2932 -0.1616  0.3507
 2270SOL     OW 9077   1.183   5.360   2.010  0.1290  0.2801 -0.1935
 2270SOL    HW1 9078   1.270   5.357   1.971  0.8605  0.7699  1.3177
 2270SOL    HW2 9079   1.166   5.453   2.023  0.4955  0.0922  1.8521
 2270SOL     MW 9080   1.192   5.372   2.006  0.2696  0.3188  0.2618
 2271SOL     OW 9081   1.797   0.824   3.282  0.0340  0.1859 -0.3067
 2271SOL    HW1 9082   1.802   0.742   3.233  0.1650  0.4403 -0.7226
 2271SOL    HW2 9083   1.872   0.821   3.341  0.1889  0.1170 -0.5022
 2271SOL     MW 9084   1.807   0.813   3.283  0.0706  0.2096 -0.3849
 2272SOL     OW 9085   3.442   0.905   2.057  0.2598  0.0028 -0.4835
 2272SOL    HW1 9086   3.467   0.901   1.965  0.5269 -3.0462 -0.3758
 2272SOL    HW2 9087   3.502   0.845   2.101 -1.8624 -1.0762  1.1271
 2272SOL     MW 9088   3.453   0.897   2.051  0.0224 -0.5256 -0.2636
 2273SOL     OW 9089   1.661   2.206   2.709  0.3532  0.0002 -0.2957
 2273SOL    HW1 9090   1.583   2.193   2.655 -0.9484 -2.2270  1.8869
 2273SOL    HW2 9091   1.726   2.147   2.672  0.4634  0.6170 -1.1152
 2273SOL     MW 9092   1.659   2.197   2.697  0.2007 -0.2059 -0.1212
 2274SOL     OW 9093   2.293   0.929   4.802  0.0424 -0.4345  0.0896
 2274SOL    HW1 9094   2.382   0.905   4.774 -0.4234 -1.0403 -0.8975
 2274SOL    HW2 9095   2.236   0.873   4.751 -0.9316  0.0733  0.6022
 2274SOL     MW 9096   2.297   0.919   4.792 -0.1419 -0.4471  0.0288
 2275SOL     OW 9097   1.737   4.700   4.697  0.4788 -0.3951 -0.3208
 2275SOL    HW1 9098   1.765   4.686   4.607 -0.8550  0.3859 -0.8820
 2275SOL    HW2 9099   1.663   4.760   4.691 -1.0179 -1.9755  1.1162
 2275SOL     MW 9100   1.731   4.706   4.685  0.1164 -0.4974 -0.2087
 2276SOL     OW 9101   0.152   5.302   2.943 -0.2601  0.1038 -0.3538
 2276SOL    HW1 9102   0.082   5.238   2.936  0.0080 -0.0644 -1.8439
 2276SOL    HW2 9103   0.232   5.250   2.937  0.0099  0.3523  0.7804
 2276SOL     MW 9104   0.154   5.287   2.942 -0.1912  0.1141 -0.3993
 2277SOL     OW 9105   2.647   1.002   0.401  0.4437 -0.7510  0.5564
 2277SOL    HW1 9106   2.677   1.053   0.477 -0.6596 -2.0047  1.8946
 2277SOL    HW2 9107   2.638   1.066   0.331 -1.1229  0.9664  2.2189
 2277SOL     MW 9108   2.650   1.017   0.402  0.1019 -0.6916  0.9405
 2278SOL     OW 9109   1.672   2.385   1.355 -0.1393  0.3722 -0.1601
 2278SOL    HW1 9110   1.731   2.314   1.333  0.0542  1.0296 -1.9873
 2278SOL    HW2 9111   1.597   2.343   1.397  0.3154 -0.8040 -0.5121
 2278SOL     MW 9112   1.670   2.371   1.357 -0.0563  0.3058 -0.4390
 2279SOL     OW 9113   1.250   3.100   3.415 -0.4459 -0.3207  0.1647
 2279SOL    HW1 9114   1.270   3.162   3.485 -2.3136 -0.8688  1.2284
 2279SOL    HW2 9115   1.302   3.022   3.437 -1.1571 -0.5536  1.0554
 2279SOL     MW 9116   1.259   3.098   3.427 -0.7760 -0.4207  0.4149
 2280SOL     OW 9117   2.543   2.299   1.420 -0.3228  0.0299 -0.2694
 2280SOL    HW1 9118   2.551   2.331   1.330 -0.2796  0.7093 -0.0339
 2280SOL    HW2 9119   2.577   2.210   1.417  0.0742  0.1932 -0.8415
 2280SOL     MW 9120   2.548   2.292   1.408 -0.2665  0.1378 -0.3125
 2281SOL     OW 9121   1.712   0.122   4.191  0.0850  0.3580 -0.4924
 2281SOL    HW1 9122   1.724   0.029   4.208 -0.1577  0.3433 -0.3962
 2281SOL    HW2 9123   1.731   0.165   4.274 -3.0092  0.1417  0.4689
 2281SOL     MW 9124   1.716   0.116   4.204 -0.3421  0.3284 -0.3570
 2282SOL     OW 9125   4.195   2.785   2.104  0.4255  0.5401  0.4128
 2282SOL    HW1 9126   4.205   2.834   2.186 -0.7310  3.2873 -0.9694
 2282SOL    HW2 9127   4.106   2.751   2.107  0.3662  0.6850  0.2631
 2282SOL     MW 9128   4.185   2.787   2.115  0.2698  0.9103  0.2167
 2283SOL     OW 9129   2.214   0.178   1.593 -0.3653  0.3988 -0.7642
 2283SOL    HW1 9130   2.226   0.202   1.501  0.6921  1.4892 -0.3731
 2283SOL    HW2 9131   2.275   0.235   1.640 -1.8629  0.8432  0.7371
 2283SOL     MW 9132   2.223   0.189   1.587 -0.4217  0.5953 -0.5219
 2284SOL     OW 9133   0.491   1.267   5.114 -0.0562  0.1449  0.3113
 2284SOL    HW1 9134   0.583   1.259   5.087 -0.0499  1.9096 -0.3425
 2284SOL    HW2 9135   0.441   1.235   5.039  0.0255  0.6507  0.0329
 2284SOL     MW 9136   0.497   1.262   5.101 -0.0449  0.4355  0.1920
 2285SOL     OW 9137   4.741   1.176   1.805 -0.3064 -0.2588 -0.0403
 2285SOL    HW1 9138   4.790   1.158   1.725  0.2538  1.0799 -0.0319
 2285SOL    HW2 9139   4.649   1.169   1.779 -0.1298  0.0678 -0.7883
 2285SOL     MW 9140   4.736   1.173   1.792 -0.2121 -0.0456 -0.1350
 2286SOL     OW 9141   1.306   2.088   2.127 -0.1846  0.5470 -0.5305
 2286SOL    HW1 9142   1.222   2.046   2.145 -0.4926  1.0664 -0.7541
 2286SOL    HW2 9143   1.348   2.030   2.062 -0.9735  1.0221 -1.4940
 2286SOL     MW 9144   1.301   2.075   2.121 -0.3250  0.6743 -0.6824
 2287SOL     OW 9145   3.219   2.352   5.354  0.0479 -0.1310  0.1590
 2287SOL    HW1 9146   3.211   2.328   5.447  0.3883  2.2460  0.8965
 2287SOL    HW2 9147   3.312   2.372   5.343  0.3635 -2.1158 -1.2306
 2287SOL     MW 9148   3.230   2.352   5.365  0.1319 -0.0808  0.0755
 2288SOL     OW 9149   0.619   1.629   4.330  0.2939  0.3059 -0.2429
 2288SOL    HW1 9150   0.689   1.664   4.386 -1.2473 -0.0621  2.0237
 2288SOL    HW2 9151   0.556   1.700   4.323  0.0280  0.0242 -0.7596
 2288SOL     MW 9152   0.620   1.642   4.336  0.0626  0.2228 -0.0189
 2289SOL     OW 9153   1.352   3.914   1.131 -0.2780  0.6272  0.3318
 2289SOL    HW1 9154   1.439   3.919   1.170  0.1318  0.5834 -0.5507
 2289SOL    HW2 9155   1.317   4.003   1.139  0.6518  1.1416 -1.0946
 2289SOL     MW 9156   1.359   3.926   1.137 -0.1065  0.6874  0.0363
 2290SOL     OW 9157   2.818   0.068   5.056 -0.3635 -0.1146  0.1713
 2290SOL    HW1 9158   2.734   0.081   5.012  0.9348  0.7441 -2.2103
 2290SOL    HW2 9159   2.802  -0.004   5.117 -2.4737 -0.8526 -1.1440
 2290SOL     MW 9160   2.805   0.061   5.059 -0.4675 -0.0991 -0.3020
 2291SOL     OW 9161   3.684   0.886   1.493 -0.1666 -0.0358 -0.0521
 2291SOL    HW1 9162   3.742   0.844   1.430  0.5392 -0.2076  0.6868
 2291SOL    HW2 9163   3.670   0.974   1.458 -2.9055 -1.2776 -2.4140
 2291SOL     MW 9164   3.690   0.892   1.481 -0.4269 -0.2168 -0.2599
 2292SOL     OW 9165   3.860   0.993   5.385  0.2098  0.2575  0.2559
 2292SOL    HW1 9166   3.805   1.012   5.309 -0.2346  1.5282  0.8797
 2292SOL    HW2 9167   3.838   0.902   5.408  1.3501 -0.6411 -1.9243
 2292SOL     MW 9168   3.850   0.984   5.378  0.2989  0.3051  0.0566
 2293SOL     OW 9169   2.896   5.278   4.690  0.1515 -0.3532  0.0315
 2293SOL    HW1 9170   2.811   5.304   4.656 -0.1448 -1.1753  0.1379
 2293SOL    HW2 9171   2.885   5.277   4.785 -0.3040 -2.3786 -0.0115
 2293SOL     MW 9172   2.884   5.281   4.698  0.0552 -0.7177  0.0396
 2294SOL     OW 9173   4.719   0.212   0.152 -0.2859  0.2045 -0.4659
 2294SOL    HW1 9174   4.768   0.293   0.158  0.8847 -0.4968 -0.1963
 2294SOL    HW2 9175   4.637   0.236   0.109 -0.4716  1.7234  0.6832
 2294SOL     MW 9176   4.715   0.225   0.147 -0.1598  0.3092 -0.2843
 2295SOL     OW 9177   5.382   2.432   1.331 -0.1567 -0.4223 -0.3843
 2295SOL    HW1 9178   5.362   2.525   1.338 -0.3203 -0.3449 -1.5908
 2295SOL    HW2 9179   5.436   2.413   1.407  0.0879  0.7179 -0.2546
 2295SOL     MW 9180   5.386   2.442   1.342 -0.1463 -0.2664 -0.5221
 2296SOL     OW 9181   0.799   1.385   4.734  0.5557  0.0469 -0.4787
 2296SOL    HW1 9182   0.865   1.427   4.679  0.3279  0.6960 -0.2623
 2296SOL    HW2 9183   0.756   1.457   4.780 -0.9408 -0.2661 -1.3011
 2296SOL     MW 9184   0.802   1.399   4.733  0.3349  0.0899 -0.5563
 2297SOL     OW 9185   4.796   1.953   2.960 -0.2100  0.2833 -0.4112
 2297SOL    HW1 9186   4.815   2.023   3.022 -1.5507  0.4314 -0.1318
 2297SOL    HW2 9187   4.700   1.950   2.955 -0.1992 -1.5414 -0.3957
 2297SOL     MW 9188   4.786   1.962   2.967 -0.3803  0.0686 -0.3734
 2298SOL     OW 9189   2.007   5.206   1.253  0.3607 -0.6146 -0.1019
 2298SOL    HW1 9190   1.976   5.124   1.291 -0.1084 -0.4296 -0.0897
 2298SOL    HW2 9191   2.004   5.269   1.325  0.1468 -0.4371 -0.2666
 2298SOL     MW 9192   2.003   5.204   1.267  0.2733 -0.5682 -0.1214
 2299SOL     OW 9193   2.137   3.012   5.347  0.2702  0.6341 -0.2851
 2299SOL    HW1 9194   2.092   2.929   5.331 -1.1435  1.5780 -1.5124
 2299SOL    HW2 9195   2.228   2.994   5.324  0.2340 -0.8530  0.5539
 2299SOL     MW 9196   2.143   2.999   5.342  0.0846  0.5646 -0.3348
 2300SOL     OW 9197   0.971   3.432   3.967 -0.1862 -0.8338 -0.4701
 2300SOL    HW1 9198   1.057   3.410   4.004 -0.2894  1.5428  1.4240
 2300SOL    HW2 9199   0.924   3.349   3.965  1.2102 -1.7339  1.0784
 2300SOL     MW 9200   0.976   3.419   3.971 -0.0207 -0.6448 -0.0294
 2301SOL     OW 9201   1.462   1.157   4.527  0.0784 -0.3861 -0.1306
 2301SOL    HW1 9202   1.404   1.225   4.559 -0.1202 -0.0769 -1.1289
 2301SOL    HW2 9203   1.456   1.087   4.593 -2.4121 -0.9232 -0.8194
 2301SOL     MW 9204   1.454   1.156   4.539 -0.2658 -0.4152 -0.3466
 2302SOL     OW 9205   4.894   1.739   0.203 -0.1944 -0.3568 -0.0296
 2302SOL    HW1 9206   4.930   1.750   0.115 -0.1655 -2.5357 -0.3613
 2302SOL    HW2 9207   4.963   1.695   0.252 -0.4987  0.1526  0.8776
 2302SOL     MW 9208   4.907   1.735   0.198 -0.2297 -0.5705  0.0441
 2303SOL     OW 9209   5.333   5.239   2.000 -0.3952  0.0615  0.5463
 2303SOL    HW1 9210   5.384   5.253   1.921 -1.5377  1.3346  0.0054
 2303SOL    HW2 9211   5.285   5.157   1.983 -0.6485  0.3371 -0.0864
 2303SOL     MW 9212   5.333   5.230   1.988 -0.5739  0.2598  0.3961
 2304SOL     OW 9213   1.290   4.529   4.825  0.1700  0.1311 -0.2659
 2304SOL    HW1 9214   1.249   4.451   4.863 -1.2520  1.4848  1.1427
 2304SOL    HW2 9215   1.381   4.524   4.853  0.0762 -0.9847 -0.1265
 2304SOL     MW 9216   1.296   4.519   4.833 -0.0240  0.1615 -0.0677
 2305SOL     OW 9217   0.532   4.211   4.723  0.2225 -0.0213  0.1912
 2305SOL    HW1 9218   0.491   4.174   4.801 -0.5938  0.6137  0.0830
 2305SOL    HW2 9219   0.478   4.181   4.650 -0.2415  1.0576  0.0710
 2305SOL     MW 9220   0.520   4.203   4.723  0.0586  0.1981  0.1620
 2306SOL     OW 9221   1.269   4.613   2.508 -0.1080  0.2366  0.2908
 2306SOL    HW1 9222   1.192   4.640   2.559  0.5286 -0.2725  1.5660
 2306SOL    HW2 9223   1.260   4.661   2.426 -2.7239 -1.1513 -0.3565
 2306SOL     MW 9224   1.258   4.623   2.504 -0.3614 -0.0063  0.3712
 2307SOL     OW 9225   3.389   0.955   0.843  0.0864 -0.6128 -0.0475
 2307SOL    HW1 9226   3.333   0.922   0.773 -0.8795 -0.4588  0.6387
 2307SOL    HW2 9227   3.403   0.879   0.900  2.0376 -1.1217 -1.1029
 2307SOL     MW 9228   3.384   0.941   0.841  0.2125 -0.6583 -0.0947
 2308SOL     OW 9229   5.257   0.068   5.124 -0.2266 -0.0947 -0.2658
 2308SOL    HW1 9230   5.240  -0.011   5.175 -0.1435 -0.6422 -1.0661
 2308SOL    HW2 9231   5.182   0.076   5.066 -0.1042  0.2584 -0.3798
 2308SOL     MW 9232   5.245   0.059   5.123 -0.2003 -0.1196 -0.3829
 2309SOL     OW 9233   0.745   2.828   4.711  0.2216 -0.0841  0.2519
 2309SOL    HW1 9234   0.723   2.866   4.796  0.0067 -0.7956  0.5233
 2309SOL    HW2 9235   0.733   2.734   4.723 -0.0663 -0.1733 -0.6406
 2309SOL     MW 9236   0.740   2.821   4.723  0.1572 -0.1866  0.1724
 2310SOL     OW 9237   2.935   2.586   4.056  0.1964  0.2787  0.3493
 2310SOL    HW1 9238   2.965   2.623   3.973  0.4776 -0.4079  0.1332
 2310SOL    HW2 9239   2.841   2.601   4.057 -0.1096 -1.2302 -0.9176
 2310SOL     MW 9240   2.927   2.593   4.045  0.1932 -0.0024  0.1594
 2311SOL     OW 9241   2.324   5.106   1.306 -0.4035  0.0605 -0.4872
 2311SOL    HW1 9242   2.235   5.116   1.274 -0.9597  0.7659  1.1768
 2311SOL    HW2 9243   2.316   5.050   1.383  0.4057  1.1033  0.3930
 2311SOL     MW 9244   2.312   5.100   1.312 -0.3711  0.2843 -0.1615
 2312SOL     OW 9245   4.413   5.097   1.887 -0.1779 -0.4817 -0.1609
 2312SOL    HW1 9246   4.414   5.185   1.848 -0.6927 -1.1890 -1.8849
 2312SOL    HW2 9247   4.353   5.047   1.832 -0.7549 -1.6401  1.4590
 2312SOL     MW 9248   4.406   5.102   1.875 -0.3177 -0.7205 -0.1743
 2313SOL     OW 9249   0.312   1.096   3.941 -0.2943 -0.2471  0.2514
 2313SOL    HW1 9250   0.262   1.028   3.986 -0.9520  0.2996  0.3602
 2313SOL    HW2 9251   0.353   1.147   4.012  1.8888 -1.7170  0.1662
 2313SOL     MW 9252   0.311   1.094   3.956 -0.0990 -0.3652  0.2544
 2314SOL     OW 9253   3.883   4.997   5.311  0.3094 -0.1234  0.1647
 2314SOL    HW1 9254   3.934   4.924   5.276 -0.1182 -0.8605  1.0341
 2314SOL    HW2 9255   3.949   5.059   5.345  0.8554  1.4619 -3.3397
 2314SOL     MW 9256   3.898   4.996   5.311  0.3246 -0.0148 -0.1726
 2315SOL     OW 9257   2.049   0.890   1.313  0.3162 -0.1557  0.0204
 2315SOL    HW1 9258   2.024   0.802   1.341  0.0471 -0.3886 -0.9088
 2315SOL    HW2 9259   1.991   0.909   1.239 -0.3031  1.2006  0.8024
 2315SOL     MW 9260   2.038   0.881   1.307  0.2024 -0.0119  0.0016
 2316SOL     OW 9261   3.454   3.265   2.222  0.4764 -0.1984 -0.1393
 2316SOL    HW1 9262   3.417   3.188   2.178  0.2397  0.0625 -0.3967
 2316SOL    HW2 9263   3.382   3.300   2.275  0.6969 -0.3810  0.2834
 2316SOL     MW 9264   3.440   3.260   2.223  0.4743 -0.1884 -0.1182
 2317SOL     OW 9265   1.207   5.033   4.964  0.5850  0.0136  0.4290
 2317SOL    HW1 9266   1.148   5.095   4.921  0.1157 -0.6745  0.0656
 2317SOL    HW2 9267   1.177   4.947   4.935 -0.2294 -0.5452  2.6856
 2317SOL     MW 9268   1.196   5.030   4.955  0.4206 -0.1460  0.6714
 2318SOL     OW 9269   3.619   4.469   4.178  0.3710  0.4328 -0.2841
 2318SOL    HW1 9270   3.687   4.536   4.180 -0.3262  1.1844 -0.8185
 2318SOL    HW2 9271   3.560   4.498   4.108 -1.0456  0.3603  0.8445
 2318SOL     MW 9272   3.620   4.481   4.169  0.1004  0.5197 -0.2080
 2319SOL     OW 9273   0.128   4.995   3.869 -0.0073 -0.0036 -0.2968
 2319SOL    HW1 9274   0.153   5.066   3.929 -0.6159 -0.1855  0.1876
 2319SOL    HW2 9275   0.122   4.917   3.926 -1.6588  0.0345 -0.3825
 2319SOL     MW 9276   0.130   4.994   3.884 -0.2966 -0.0220 -0.2458
 2320SOL     OW 9277   3.046   5.060   4.569  0.0019 -0.6758 -0.6646
 2320SOL    HW1 9278   3.102   5.022   4.637 -0.2693 -2.0271 -1.1710
 2320SOL    HW2 9279   3.005   5.136   4.612  2.0876  0.2883 -0.2478
 2320SOL     MW 9280   3.048   5.065   4.583  0.2342 -0.7253 -0.6761
 2321SOL     OW 9281   0.157   3.042   4.236  0.7744 -0.0883 -0.0799
 2321SOL    HW1 9282   0.087   2.995   4.283  0.9320 -0.5867 -0.3465
 2321SOL    HW2 9283   0.199   3.094   4.304  0.0461  0.3358  0.0585
 2321SOL     MW 9284   0.153   3.043   4.251  0.7013 -0.0978 -0.0963
 2322SOL     OW 9285   3.957   5.359   1.599  0.0532 -0.0063  0.0585
 2322SOL    HW1 9286   3.984   5.267   1.599 -0.9533 -0.3504 -1.4363
 2322SOL    HW2 9287   3.950   5.382   1.691  2.3796 -0.7672  0.4966
 2322SOL     MW 9288   3.959   5.350   1.610  0.2222 -0.1478 -0.0768
 2323SOL     OW 9289   2.316   5.217   1.938 -0.4415 -0.0607  0.2521
 2323SOL    HW1 9290   2.375   5.214   2.014 -2.0153  0.1128  1.5202
 2323SOL    HW2 9291   2.375   5.212   1.862  1.1474 -0.6717  1.4698
 2323SOL     MW 9292   2.331   5.216   1.938 -0.4396 -0.1167  0.5703
 2324SOL     OW 9293   1.059   5.041   2.205 -0.2427 -0.0490  0.2326
 2324SOL    HW1 9294   1.069   5.065   2.113  0.8062  1.7606  0.7609
 2324SOL    HW2 9295   1.127   4.974   2.220  0.5074  0.6454  0.0010
 2324SOL     MW 9296   1.069   5.035   2.195 -0.0124  0.2715  0.2706
 2325SOL     OW 9297   2.705   4.499   1.432 -0.5317 -0.5834  0.6537
 2325SOL    HW1 9298   2.686   4.454   1.514 -2.5233 -0.0810  0.5092
 2325SOL    HW2 9299   2.719   4.590   1.459 -0.1524 -0.6064  0.5381
 2325SOL     MW 9300   2.705   4.505   1.446 -0.7381 -0.5220  0.6204
 2326SOL     OW 9301   1.125   1.212   5.116  0.4076  0.1427 -0.3407
 2326SOL    HW1 9302   1.136   1.231   5.022  0.5355  0.3934 -0.2746
 2326SOL    HW2 9303   1.052   1.149   5.119 -0.5816  1.2445 -0.4993
 2326SOL     MW 9304   1.117   1.206   5.104  0.2974  0.3158 -0.3525
 2327SOL     OW 9305   0.891   1.353   3.510  0.3917 -0.3249 -0.0029
 2327SOL    HW1 9306   0.939   1.423   3.555  0.9080 -1.4676  1.2761
 2327SOL    HW2 9307   0.847   1.398   3.437  0.2950  1.4245  1.0640
 2327SOL     MW 9308   0.892   1.368   3.506  0.4454 -0.2472  0.2974
 2328SOL     OW 9309   4.901   3.528   4.717 -0.2752  0.0141 -0.1449
 2328SOL    HW1 9310   4.878   3.603   4.772  0.3093 -0.5594  0.9177
 2328SOL    HW2 9311   4.819   3.479   4.709 -0.9043  1.2173 -1.6441
 2328SOL     MW 9312   4.887   3.532   4.723 -0.2809  0.0947 -0.2008
 2329SOL     OW 9313   1.284   5.184   4.307  0.0733  0.1547  0.2017
 2329SOL    HW1 9314   1.236   5.110   4.344  0.6877 -0.4912 -0.2615
 2329SOL    HW2 9315   1.371   5.178   4.346 -0.0337  0.9757  0.5919
 2329SOL     MW 9316   1.289   5.174   4.316  0.1382  0.1771  0.1924
 2330SOL     OW 9317   4.767   4.507   3.682  0.3390  0.2695 -0.2220
 2330SOL    HW1 9318   4.741   4.566   3.611  2.4836 -0.0823 -1.4054
 2330SOL    HW2 9319   4.819   4.561   3.741 -0.4690  0.2930  0.4868
 2330SOL     MW 9320   4.771   4.521   3.680  0.5101  0.2275 -0.2828
 2331SOL     OW 9321   0.943   1.626   1.234  0.2114 -0.2510  0.0438
 2331SOL    HW1 9322   0.897   1.543   1.221 -0.4577 -0.1030  1.2960
 2331SOL    HW2 9323   0.874   1.689   1.255  0.8326  0.3174  0.4276
 2331SOL     MW 9324   0.928   1.624   1.235  0.2053 -0.1593  0.2532
 2332SOL     OW 9325   4.236   2.527   2.557 -0.8130  0.1457 -0.3653
 2332SOL    HW1 9326   4.177   2.484   2.619  0.4371 -0.8232  0.1967
 2332SOL    HW2 9327   4.238   2.469   2.481  0.5279 -0.5944  0.2104
 2332SOL     MW 9328   4.229   2.514   2.555 -0.4813 -0.0731 -0.2196
 2333SOL     OW 9329   0.604   4.582   3.166  0.1089 -0.0203 -0.5071
 2333SOL    HW1 9330   0.680   4.592   3.224  0.9465 -0.1641 -1.5399
 2333SOL    HW2 9331   0.589   4.670   3.132 -2.8361  0.9913  2.7645
 2333SOL     MW 9332   0.612   4.595   3.169 -0.1609  0.0908 -0.2205
 2334SOL     OW 9333   0.308   4.320   2.457 -0.4243 -0.2658 -0.2007
 2334SOL    HW1 9334   0.298   4.290   2.367  0.3844 -0.0885 -0.3528
 2334SOL    HW2 9335   0.274   4.248   2.511 -0.0202 -0.7734 -0.6161
 2334SOL     MW 9336   0.302   4.307   2.453 -0.2690 -0.3081 -0.2733
 2335SOL     OW 9337   0.835   4.668   0.751 -0.4068 -0.1766  0.1414
 2335SOL    HW1 9338   0.918   4.714   0.766 -0.3703  0.2020 -1.1336
 2335SOL    HW2 9339   0.861   4.577   0.735 -0.2631 -0.1018 -0.0463
 2335SOL     MW 9340   0.849   4.662   0.751 -0.3837 -0.1186 -0.0458
 2336SOL     OW 9341   0.467   4.056   4.957  0.2941  0.1409 -0.3450
 2336SOL    HW1 9342   0.436   3.984   5.013  0.2888 -0.2117 -0.7998
 2336SOL    HW2 9343   0.532   4.101   5.011  1.5015 -1.1822 -0.6294
 2336SOL     MW 9344   0.471   4.052   4.971  0.4480 -0.0736 -0.4396
 2337SOL     OW 9345   0.502   1.273   3.741 -0.1449  0.2009  0.0970
 2337SOL    HW1 9346   0.429   1.218   3.769  0.7732 -0.8486  0.5035
 2337SOL    HW2 9347   0.574   1.251   3.801  0.2889  1.7754  0.2052
 2337SOL     MW 9348   0.502   1.263   3.752  0.0282  0.2681  0.1629
 2338SOL     OW 9349   3.253   0.935   2.775  0.0141  0.9215  0.4780
 2338SOL    HW1 9350   3.239   1.011   2.831  0.6082  1.1612  0.3129
 2338SOL    HW2 9351   3.345   0.912   2.789 -0.5596 -0.8238  1.8392
 2338SOL     MW 9352   3.263   0.942   2.784  0.0167  0.7288  0.6311
 2339SOL     OW 9353   3.348   4.991   3.518 -0.1804  0.4165 -0.2509
 2339SOL    HW1 9354   3.277   4.936   3.483  0.4097 -0.1398 -0.5984
 2339SOL    HW2 9355   3.375   5.044   3.443 -0.3219  0.7299 -0.0802
 2339SOL     MW 9356   3.342   4.991   3.504 -0.1230  0.3854 -0.2735
 2340SOL     OW 9357   2.909   5.241   4.990 -0.0711  0.0285  0.1344
 2340SOL    HW1 9358   3.003   5.224   4.986 -0.2104 -0.6028 -0.6503
 2340SOL    HW2 9359   2.868   5.157   4.973 -0.7916  0.1980  0.9353
 2340SOL     MW 9360   2.916   5.228   4.988 -0.1811 -0.0306  0.1365
 2341SOL     OW 9361   3.248   4.815   1.603  0.4467  0.5295  0.1546
 2341SOL    HW1 9362   3.283   4.730   1.575 -0.2957  0.8616 -1.9846
 2341SOL    HW2 9363   3.292   4.878   1.546 -1.7915  1.1707 -0.9737
 2341SOL     MW 9364   3.258   4.812   1.592  0.0651  0.6541 -0.2637
 2342SOL     OW 9365   3.425   5.421   3.937  0.3645 -0.9296  0.3715
 2342SOL    HW1 9366   3.443   5.422   4.031 -0.3231 -0.2190  0.5084
 2342SOL    HW2 9367   3.329   5.421   3.932  0.3996 -1.4371 -0.3319
 2342SOL     MW 9368   3.415   5.421   3.949  0.2809 -0.9036  0.2990
 2343SOL     OW 9369   3.101   4.410   1.503 -0.0214 -0.8224  0.1709
 2343SOL    HW1 9370   3.031   4.355   1.470  0.2813 -1.0425 -0.1157
 2343SOL    HW2 9371   3.080   4.498   1.470  0.0956 -0.9761 -0.3333
 2343SOL     MW 9372   3.090   4.414   1.494  0.0323 -0.8702  0.0697
 2344SOL     OW 9373   0.123   0.665   1.222 -0.1364  0.3244  0.0094
 2344SOL    HW1 9374   0.116   0.588   1.165 -2.0485  0.6735 -0.3217
 2344SOL    HW2 9375   0.215   0.670   1.245  0.0729 -1.9451 -0.1199
 2344SOL     MW 9376   0.134   0.655   1.217 -0.3544  0.0786 -0.0495
 2345SOL     OW 9377   5.056   3.233   5.199 -0.0441 -0.3663 -0.0575
 2345SOL    HW1 9378   5.129   3.281   5.239 -1.1267  0.1099  1.4078
 2345SOL    HW2 9379   5.086   3.217   5.109  0.9591  1.7916 -0.1879
 2345SOL     MW 9380   5.069   3.237   5.192 -0.0543 -0.0291  0.1134
 2346SOL     OW 9381   0.641   2.453   0.372 -0.0478  0.8783  0.0035
 2346SOL    HW1 9382   0.612   2.526   0.317 -0.4110  0.2528 -0.6561
 2346SOL    HW2 9383   0.732   2.437   0.345 -0.0855  0.8517 -0.1079
 2346SOL     MW 9384   0.649   2.460   0.361 -0.0991  0.7948 -0.0952
 2347SOL     OW 9385   2.343   1.878   3.038 -0.1261 -0.3746  0.2024
 2347SOL    HW1 9386   2.295   1.905   3.116  0.5883  0.4262  0.3794
 2347SOL    HW2 9387   2.416   1.940   3.031 -0.0268 -0.5879 -0.9552
 2347SOL     MW 9388   2.346   1.889   3.047 -0.0219 -0.2994  0.0769
 2348SOL     OW 9389   2.213   3.436   2.792  0.0491  0.2618 -0.0259
 2348SOL    HW1 9390   2.199   3.362   2.734 -2.2317  0.0776  0.6584
 2348SOL    HW2 9391   2.262   3.400   2.866  0.3360 -0.1940 -0.4379
 2348SOL     MW 9392   2.218   3.422   2.794 -0.2062  0.1799  0.0089
 2349SOL     OW 9393   1.189   2.542   0.074  0.2218 -0.1662  0.2631
 2349SOL    HW1 9394   1.250   2.530   0.002 -0.6089  1.3351 -0.7587
 2349SOL    HW2 9395   1.115   2.486   0.053  0.7586 -1.1584  0.9442
 2349SOL     MW 9396   1.187   2.533   0.062  0.1841 -0.1010  0.2195
 2350SOL     OW 9397   0.876   0.853   3.748  0.2667 -0.0838  0.3902
 2350SOL    HW1 9398   0.881   0.767   3.791 -3.3904 -0.2115  0.8321
 2350SOL    HW2 9399   0.853   0.914   3.818 -0.0650  0.7382 -0.4167
 2350SOL     MW 9400   0.874   0.850   3.762 -0.2440  0.0051  0.3435
 2351SOL     OW 9401   5.387   4.997   5.348  0.0078 -0.0957 -0.2150
 2351SOL    HW1 9402   5.413   5.031   5.262 -0.0581 -0.7000 -0.4789
 2351SOL    HW2 9403   5.311   4.942   5.329  0.0676 -0.3246  0.2183
 2351SOL     MW 9404   5.380   4.995   5.334  0.0070 -0.2023 -0.1933
 2352SOL     OW 9405   2.708   2.887   0.537  0.2667  0.1580  0.0585
 2352SOL    HW1 9406   2.682   2.795   0.544  1.3632 -0.2497 -0.8339
 2352SOL    HW2 9407   2.792   2.884   0.491 -0.8133  1.7353 -2.1787
 2352SOL     MW 9408   2.715   2.875   0.532  0.2688  0.3077 -0.3421
 2353SOL     OW 9409   1.192   4.365   3.383 -0.1336 -0.0323 -0.2483
 2353SOL    HW1 9410   1.257   4.303   3.415  0.3661 -0.3381 -1.8061
 2353SOL    HW2 9411   1.116   4.311   3.361 -1.8853  0.4974  3.5560
 2353SOL     MW 9412   1.191   4.350   3.384 -0.2939 -0.0037  0.0393
 2354SOL     OW 9413   1.176   0.256   5.218 -0.2877 -0.1655  0.2673
 2354SOL    HW1 9414   1.117   0.280   5.289 -2.5568 -1.6488 -0.9861
 2354SOL    HW2 9415   1.161   0.323   5.151 -0.7754 -0.7094 -0.1703
 2354SOL     MW 9416   1.166   0.268   5.218 -0.6406 -0.4250  0.0509
 2355SOL     OW 9417   3.996   4.531   3.606  0.5453 -0.4246 -0.0409
 2355SOL    HW1 9418   4.077   4.480   3.605  2.4378  2.3824 -0.8077
 2355SOL    HW2 9419   4.021   4.616   3.642 -1.9463  0.7351 -0.7929
 2355SOL     MW 9420   4.010   4.535   3.610  0.4686  0.0832 -0.2353
 2356SOL     OW 9421   5.418   0.546   5.199  0.1411  0.4783 -0.1017
 2356SOL    HW1 9422   5.492   0.527   5.142 -2.2151 -1.0414 -2.9119
 2356SOL    HW2 9423   5.397   0.461   5.239  0.1411  0.9824  1.0048
 2356SOL     MW 9424   5.424   0.532   5.197 -0.1606  0.3483 -0.3198
 2357SOL     OW 9425   3.533   0.666   4.626 -0.2475 -0.0943  0.2207
 2357SOL    HW1 9426   3.576   0.622   4.553 -0.1757 -0.1017  0.2671
 2357SOL    HW2 9427   3.511   0.595   4.687  0.5033  0.0130  0.6184
 2357SOL     MW 9428   3.535   0.651   4.625 -0.1422 -0.0815  0.2775
 2358SOL     OW 9429   4.992   2.537   1.584  0.0218  0.1992 -0.4127
 2358SOL    HW1 9430   5.071   2.483   1.595 -0.1464  0.0791  0.2409
 2358SOL    HW2 9431   5.004   2.609   1.646 -1.2800 -0.8638  1.1387
 2358SOL     MW 9432   5.004   2.539   1.593 -0.1664  0.0477 -0.1304
 2359SOL     OW 9433   5.351   2.602   4.367 -0.2926  0.6444  0.1853
 2359SOL    HW1 9434   5.394   2.545   4.431 -2.1685 -0.7359  0.3039
 2359SOL    HW2 9435   5.383   2.571   4.282 -0.2857  0.2980  0.3131
 2359SOL     MW 9436   5.360   2.591   4.364 -0.5318  0.4234  0.2169
 2360SOL     OW 9437   0.260   2.556   0.480 -0.0252 -0.5744 -0.2173
 2360SOL    HW1 9438   0.179   2.507   0.473  0.0753 -0.8039  0.2016
 2360SOL    HW2 9439   0.328   2.490   0.494  0.0943 -0.3143  0.4718
 2360SOL     MW 9440   0.259   2.542   0.481  0.0030 -0.5705 -0.0755
 2361SOL     OW 9441   0.611   5.147   3.303 -0.0535 -0.0593 -0.3988
 2361SOL    HW1 9442   0.635   5.133   3.211 -1.0385 -1.2658 -0.4964
 2361SOL    HW2 9443   0.606   5.242   3.312  1.3013  0.1217 -1.2506
 2361SOL     MW 9444   0.614   5.157   3.293 -0.0061 -0.1906 -0.5203
 2362SOL     OW 9445   0.989   1.713   3.016  0.1301  0.0372  0.2384
 2362SOL    HW1 9446   1.054   1.698   3.084  0.0396 -0.1570  0.2839
 2362SOL    HW2 9447   0.953   1.800   3.035 -1.4129 -0.8554  1.7220
 2362SOL     MW 9448   0.992   1.722   3.027 -0.0790 -0.1019  0.4341
 2363SOL     OW 9449   0.906   0.599   1.060 -0.5211  0.0887  0.2695
 2363SOL    HW1 9450   0.892   0.554   1.143  1.2238  0.6095  0.8855
 2363SOL    HW2 9451   0.923   0.528   0.997 -0.1783 -0.2404  0.7233
 2363SOL     MW 9452   0.907   0.584   1.062 -0.2539  0.1132  0.4064
 2364SOL     OW 9453   0.034   3.439   0.891  0.3770 -0.2509  0.2051
 2364SOL    HW1 9454  -0.014   3.493   0.829 -0.4208  2.2015  2.7864
 2364SOL    HW2 9455  -0.016   3.357   0.895  0.4677 -0.5153 -2.2759
 2364SOL     MW 9456   0.022   3.435   0.883  0.2865  0.0292  0.2179
 2365SOL     OW 9457   1.790   0.956   4.591  0.1357  0.2177 -0.0194
 2365SOL    HW1 9458   1.755   0.895   4.656 -0.2286 -0.7253 -1.0608
 2365SOL    HW2 9459   1.803   0.903   4.513 -0.2500  1.4849 -0.9901
 2365SOL     MW 9460   1.787   0.942   4.589  0.0397  0.2592 -0.2770
 2366SOL     OW 9461   5.370   1.458   3.760 -0.8037 -0.1445 -0.3369
 2366SOL    HW1 9462   5.466   1.460   3.762 -0.8181  0.1874  0.5821
 2366SOL    HW2 9463   5.347   1.384   3.815 -1.0873  0.8530  0.9470
 2366SOL     MW 9464   5.380   1.449   3.767 -0.8418  0.0257 -0.0549
 2367SOL     OW 9465   3.305   1.555   2.029 -0.0971 -0.1289 -0.0508
 2367SOL    HW1 9466   3.239   1.621   2.049  1.0683  2.0270 -2.6500
 2367SOL    HW2 9467   3.388   1.595   2.056  0.6609 -0.4007 -1.8114
 2367SOL     MW 9468   3.307   1.568   2.035  0.1491  0.1123 -0.6089
 2368SOL     OW 9469   2.757   2.161   1.263  0.1288  0.7031  0.1654
 2368SOL    HW1 9470   2.838   2.200   1.297  1.4474  0.5432 -2.5205
 2368SOL    HW2 9471   2.730   2.220   1.192 -0.0872 -1.0966 -1.3103
 2368SOL     MW 9472   2.764   2.174   1.258  0.2699  0.4522 -0.3673
 2369SOL     OW 9473   1.369   0.353   4.830 -0.2913  0.0909 -0.0327
 2369SOL    HW1 9474   1.363   0.257   4.832  0.7665  0.0105  1.7609
 2369SOL    HW2 9475   1.459   0.371   4.804 -0.0033  0.5369  1.2109
 2369SOL     MW 9476   1.380   0.343   4.827 -0.1191  0.1377  0.3561
 2370SOL     OW 9477   1.790   2.529   2.032  0.1635 -0.2700 -0.0520
 2370SOL    HW1 9478   1.878   2.565   2.044  0.7389 -1.9582  1.1989
 2370SOL    HW2 9479   1.800   2.463   1.964 -0.6525  1.0535 -1.5254
 2370SOL     MW 9480   1.803   2.525   2.025  0.1327 -0.3167 -0.0804
 2371SOL     OW 9481   5.106   4.731   0.423  0.0278 -0.2305 -0.4068
 2371SOL    HW1 9482   5.180   4.786   0.447 -0.2221  1.1674 -2.5626
 2371SOL    HW2 9483   5.145   4.655   0.381  0.2589  0.4394 -1.4193
 2371SOL     MW 9484   5.120   4.728   0.421  0.0254  0.0342 -0.8124
 2372SOL     OW 9485   0.559   0.501   2.903 -0.0002 -0.8377 -0.0889
 2372SOL    HW1 9486   0.532   0.567   2.840 -0.8470 -0.8663  0.2332
 2372SOL    HW2 9487   0.526   0.419   2.868 -0.8952 -0.7927  0.6192
 2372SOL     MW 9488   0.551   0.499   2.891 -0.2232 -0.8356  0.0430
 2373SOL     OW 9489   2.835   2.337   1.512  0.2258 -0.2317 -0.4182
 2373SOL    HW1 9490   2.851   2.319   1.604  1.3094 -0.5854 -0.6600
 2373SOL    HW2 9491   2.741   2.322   1.501  0.0784 -0.1515  0.6281
 2373SOL     MW 9492   2.825   2.333   1.522  0.3456 -0.2667 -0.3153
 2374SOL     OW 9493   4.046   3.691   2.013 -0.5351  0.0884  0.2360
 2374SOL    HW1 9494   4.107   3.733   1.953 -0.7276  1.5549  1.0057
 2374SOL    HW2 9495   4.073   3.600   2.016  0.1424  0.2254 -1.2269
 2374SOL     MW 9496   4.057   3.685   2.006 -0.4730  0.2936  0.1473
 2375SOL     OW 9497   4.706   3.620   4.926  0.3554  0.2337 -0.1025
 2375SOL    HW1 9498   4.671   3.709   4.936 -1.0390 -0.4134  1.3559
 2375SOL    HW2 9499   4.779   3.616   4.988  0.0798  0.2190  0.2266
 2375SOL     MW 9500   4.711   3.631   4.935  0.1416  0.1490  0.1263
 2376SOL     OW 9501   4.799   1.689   2.945 -0.6740  0.3984  0.3518
 2376SOL    HW1 9502   4.780   1.783   2.956 -0.1448  0.7818 -1.6431
 2376SOL    HW2 9503   4.763   1.667   2.859 -0.7687 -1.2525  0.7784
 2376SOL     MW 9504   4.792   1.699   2.935 -0.6184  0.2361  0.1510
 2377SOL     OW 9505   2.946   5.479   0.108 -0.0833 -0.2060  0.0963
 2377SOL    HW1 9506   3.010   5.410   0.092 -0.9487 -0.8260 -0.8497
 2377SOL    HW2 9507   2.861   5.434   0.108 -0.7346  0.9350 -1.2681
 2377SOL     MW 9508   2.943   5.465   0.106 -0.2774 -0.1393 -0.1995
 2378SOL     OW 9509   2.413   2.088   3.877 -0.2020  0.4568 -0.3841
 2378SOL    HW1 9510   2.426   2.020   3.943  1.2340  0.7654 -0.3192
 2378SOL    HW2 9511   2.391   2.167   3.927  1.3032  0.7937 -0.2109
 2378SOL     MW 9512   2.412   2.090   3.892  0.1745  0.5394 -0.3536
 2379SOL     OW 9513   0.048   3.005   0.373  0.3543  0.2989  0.2693
 2379SOL    HW1 9514  -0.030   3.060   0.363  0.8294  0.9054 -0.2152
 2379SOL    HW2 9515   0.034   2.958   0.455 -0.7963 -0.0599 -0.1159
 2379SOL     MW 9516   0.036   3.006   0.382  0.2678  0.3306  0.1580
 2380SOL     OW 9517   3.476   1.733   2.144 -0.4768 -0.4893 -0.3544
 2380SOL    HW1 9518   3.570   1.721   2.141 -0.6081 -1.7792 -0.1189
 2380SOL    HW2 9519   3.461   1.785   2.223 -0.0012 -0.8920  0.0127
 2380SOL     MW 9520   3.486   1.738   2.154 -0.4327 -0.7060 -0.2772
 2381SOL     OW 9521   1.885   3.765   1.953 -0.1881  0.0100  0.5101
 2381SOL    HW1 9522   1.826   3.797   2.021  0.7060  1.2692  0.7349
 2381SOL    HW2 9523   1.972   3.768   1.993  0.0953 -1.4954  0.0799
 2381SOL     MW 9524   1.888   3.769   1.967 -0.0374 -0.0215  0.4838
 2382SOL     OW 9525   5.363   1.230   3.907  0.5951  0.1017  0.2715
 2382SOL    HW1 9526   5.396   1.261   3.991  2.2250 -0.3832 -0.1441
 2382SOL    HW2 9527   5.438   1.184   3.868 -0.5703 -0.9734 -0.7936
 2382SOL     MW 9528   5.377   1.228   3.913  0.6546 -0.0980  0.0819
 2383SOL     OW 9529   0.578   1.158   1.271  0.0853 -0.2081  0.0111
 2383SOL    HW1 9530   0.483   1.159   1.268 -0.0805  2.1799  2.2759
 2383SOL    HW2 9531   0.604   1.088   1.210 -3.1178 -2.4003  0.9427
 2383SOL     MW 9532   0.569   1.149   1.262 -0.3459 -0.1831  0.4203
 2384SOL     OW 9533   2.709   1.753   5.339  0.0069 -0.4630  0.7670
 2384SOL    HW1 9534   2.789   1.761   5.390 -0.4346  0.0537  1.4003
 2384SOL    HW2 9535   2.662   1.679   5.378  0.9825 -1.9571 -0.7622
 2384SOL     MW 9536   2.713   1.745   5.350  0.0753 -0.5881  0.6523
 2385SOL     OW 9537   2.262   1.220   4.233  0.6671 -0.0998  0.0341
 2385SOL    HW1 9538   2.168   1.230   4.217  0.7168 -1.0577 -0.9295
 2385SOL    HW2 9539   2.267   1.187   4.323 -0.0371 -1.6705 -0.4612
 2385SOL     MW 9540   2.250   1.217   4.243  0.5833 -0.4235 -0.1527
 2386SOL     OW 9541   3.518   2.362   3.133 -0.1487 -0.4438 -0.0233
 2386SOL    HW1 9542   3.537   2.268   3.122 -1.7630 -0.8303  0.2011
 2386SOL    HW2 9543   3.582   2.392   3.197  1.5175 -0.9687 -1.3619
 2386SOL     MW 9544   3.529   2.354   3.140 -0.1421 -0.5605 -0.1659
 2387SOL     OW 9545   4.827   1.117   3.276  0.1571 -0.1876  0.2688
 2387SOL    HW1 9546   4.870   1.077   3.351 -1.5648 -1.4010  0.6692
 2387SOL    HW2 9547   4.778   1.046   3.235 -0.3254  0.8189 -0.9895
 2387SOL     MW 9548   4.826   1.103   3.280 -0.1251 -0.2141  0.1590
 2388SOL     OW 9549   4.983   1.493   3.317  0.1132 -0.0832 -0.4606
 2388SOL    HW1 9550   4.980   1.587   3.336  2.6222 -0.3999  2.1889
 2388SOL    HW2 9551   4.921   1.454   3.378 -0.0296 -0.2650 -0.7167
 2388SOL     MW 9552   4.975   1.500   3.327  0.4161 -0.1470 -0.1542
 2389SOL     OW 9553   3.949   2.158   1.972  0.2178  0.1366  0.5095
 2389SOL    HW1 9554   3.934   2.250   1.951 -0.9021 -0.4198 -1.2711
 2389SOL    HW2 9555   3.976   2.119   1.889  2.5691 -0.8068  1.6255
 2389SOL     MW 9556   3.951   2.165   1.959  0.3755 -0.0554  0.4244
 2390SOL     OW 9557   2.884   3.134   4.249  0.5836  0.3517  0.0923
 2390SOL    HW1 9558   2.894   3.201   4.182  1.5927  0.2058  0.0827
 2390SOL    HW2 9559   2.803   3.088   4.226  1.0448  0.1442 -1.1674
 2390SOL     MW 9560   2.875   3.137   4.237  0.7718  0.3065 -0.0702
 2391SOL     OW 9561   3.023   0.354   2.987  0.5086 -0.2678 -0.2673
 2391SOL    HW1 9562   2.965   0.294   3.035  1.9091  0.3139  2.3355
 2391SOL    HW2 9563   2.992   0.350   2.897 -1.7310 -2.1421  0.4842
 2391SOL     MW 9564   3.012   0.346   2.982  0.4012 -0.4333  0.1621
 2392SOL     OW 9565   4.184   0.630   1.069 -0.1643  0.1057 -0.0594
 2392SOL    HW1 9566   4.143   0.592   0.991 -2.4531  1.3886  0.4161
 2392SOL    HW2 9567   4.187   0.724   1.051  1.8513  0.1568  0.3178
 2392SOL     MW 9568   4.179   0.637   1.057 -0.1993  0.2765  0.0498
 2393SOL     OW 9569   0.860   3.187   3.947  0.3447  0.1989  1.0308
 2393SOL    HW1 9570   0.871   3.115   4.009  0.3464  0.7016  1.6185
 2393SOL    HW2 9571   0.766   3.208   3.950  0.4062  0.4628  1.1337
 2393SOL     MW 9572   0.849   3.180   3.955  0.3528  0.2970  1.1192
 2394SOL     OW 9573   2.449   1.607   2.153  0.6964 -0.0008 -0.3405
 2394SOL    HW1 9574   2.527   1.661   2.141 -0.0497  1.1292 -0.2642
 2394SOL    HW2 9575   2.453   1.579   2.245  1.0747 -0.0445 -0.3697
 2394SOL     MW 9576   2.459   1.610   2.163  0.6493  0.1382 -0.3344
 2395SOL     OW 9577   4.725   4.418   3.365  0.1195 -0.2406  0.2027
 2395SOL    HW1 9578   4.819   4.403   3.351  0.2695  0.3161  0.5883
 2395SOL    HW2 9579   4.687   4.414   3.277  0.6570  0.5071 -0.0752
 2395SOL     MW 9580   4.732   4.416   3.352  0.2075 -0.0736  0.2165
 2396SOL     OW 9581   2.417   0.253   0.536  0.0783  0.4415 -0.3947
 2396SOL    HW1 9582   2.462   0.338   0.534  1.5796 -0.3331 -1.2506
 2396SOL    HW2 9583   2.465   0.202   0.602  1.3498 -0.8219 -2.2058
 2396SOL     MW 9584   2.429   0.258   0.544  0.4332  0.1806 -0.7361
 2397SOL     OW 9585   4.498   4.294   5.330 -0.0242  0.3298  0.5105
 2397SOL    HW1 9586   4.470   4.381   5.301 -0.6125 -0.1718 -0.4725
 2397SOL    HW2 9587   4.506   4.243   5.249  1.0283 -0.3333  1.0152
 2397SOL     MW 9588   4.496   4.299   5.316  0.0352  0.1807  0.4492
 2398SOL     OW 9589   3.851   0.510   2.911  0.5641  0.5032 -0.5026
 2398SOL    HW1 9590   3.887   0.421   2.919 -0.0946  0.3714  1.9028
 2398SOL    HW2 9591   3.924   0.567   2.934  0.7396  0.5561 -1.1672
 2398SOL     MW 9592   3.865   0.506   2.915  0.5023  0.4931 -0.2797
 2399SOL     OW 9593   4.461   4.249   1.507  0.3916  0.6842  0.1594
 2399SOL    HW1 9594   4.404   4.177   1.482 -0.9424  1.3944  1.0370
 2399SOL    HW2 9595   4.446   4.261   1.601  1.5780  1.2534  0.3014
 2399SOL     MW 9596   4.452   4.241   1.516  0.3727  0.8480  0.2899
 2400SOL     OW 9597   4.131   0.441   1.894  0.1609  0.3071 -0.2753
 2400SOL    HW1 9598   4.114   0.430   1.987 -1.8929 -1.0157 -0.7493
 2400SOL    HW2 9599   4.157   0.353   1.864  2.0829  0.9844 -0.7618
 2400SOL     MW 9600   4.132   0.428   1.902  0.1441  0.2244 -0.3983
 2401SOL     OW 9601   4.912   1.309   3.115 -0.2928 -0.5456 -0.7164
 2401SOL    HW1 9602   4.959   1.377   3.163 -0.0839 -0.0464 -1.6150
 2401SOL    HW2 9603   4.869   1.257   3.183  0.2211 -0.0191  0.0219
 2401SOL     MW 9604   4.912   1.311   3.130 -0.2003 -0.4143 -0.7369
 2402SOL     OW 9605   2.846   1.213   1.547 -0.9729  0.0095 -0.2297
 2402SOL    HW1 9606   2.861   1.228   1.640  0.2564 -0.3079 -0.3620
 2402SOL    HW2 9607   2.857   1.119   1.535 -0.0446  0.1854 -0.8646
 2402SOL     MW 9608   2.849   1.203   1.557 -0.6967 -0.0086 -0.3279
 2403SOL     OW 9609   2.858   0.197   3.123  0.0154  0.3301  0.9030
 2403SOL    HW1 9610   2.765   0.209   3.140  0.1246  0.8850  1.1416
 2403SOL    HW2 9611   2.899   0.198   3.209  0.1305 -1.0366  0.8790
 2403SOL     MW 9612   2.851   0.199   3.136  0.0441  0.2262  0.9304
 2404SOL     OW 9613   4.090   4.721   0.873  0.0321 -0.2572 -0.4204
 2404SOL    HW1 9614   4.126   4.634   0.856 -0.7462 -0.4492 -1.1485
 2404SOL    HW2 9615   4.083   4.762   0.787  1.0077  0.7913 -0.0314
 2404SOL     MW 9616   4.093   4.715   0.860  0.0573 -0.1476 -0.4638
 2405SOL     OW 9617   2.688   2.170   2.546  0.1376  0.1288  0.1313
 2405SOL    HW1 9618   2.639   2.090   2.564  0.4514 -0.1589 -0.2819
 2405SOL    HW2 9619   2.738   2.185   2.627  0.5816 -0.4638 -0.0196
 2405SOL     MW 9620   2.688   2.161   2.559  0.2346  0.0161  0.0591
 2406SOL     OW 9621   2.749   3.853   0.335 -0.0325 -0.1627 -0.4187
 2406SOL    HW1 9622   2.773   3.883   0.247 -0.0769  1.5445  0.1018
 2406SOL    HW2 9623   2.824   3.878   0.390 -1.3402  1.9123  0.5775
 2406SOL     MW 9624   2.762   3.860   0.331 -0.2055  0.3214 -0.2246
 2407SOL     OW 9625   0.568   5.245   3.952 -0.6051 -0.1023 -0.2574
 2407SOL    HW1 9626   0.527   5.235   3.866  0.8735  0.4674 -1.0718
 2407SOL    HW2 9627   0.588   5.339   3.958  0.3534 -0.3192  0.1938
 2407SOL     MW 9628   0.566   5.256   3.942 -0.2931 -0.0572 -0.3039
 2408SOL     OW 9629   5.035   4.381   4.262 -0.5401  0.7104  0.5459
 2408SOL    HW1 9630   5.039   4.362   4.355 -0.3261  1.8897  0.7911
 2408SOL    HW2 9631   5.123   4.362   4.229 -0.6557  0.1561  0.5489
 2408SOL     MW 9632   5.047   4.376   4.269 -0.5275  0.7904  0.5776
 2409SOL     OW 9633   0.102   1.175   4.983  0.3106 -0.4893 -0.0778
 2409SOL    HW1 9634   0.022   1.225   4.998  0.9265  0.2680  0.7611
 2409SOL    HW2 9635   0.094   1.099   5.041  0.1459 -0.4841 -0.0922
 2409SOL     MW 9636   0.090   1.171   4.992  0.3684 -0.3917  0.0278
 2410SOL     OW 9637   3.851   0.651   1.068  0.5394  0.0910  0.6981
 2410SOL    HW1 9638   3.945   0.638   1.053  0.4370 -1.0671  0.9739
 2410SOL    HW2 9639   3.815   0.562   1.074 -0.8694  0.4590 -1.1852
 2410SOL     MW 9640   3.859   0.638   1.067  0.3459 -0.0102  0.4923
 2411SOL     OW 9641   3.837   4.438   1.937  0.6280  0.0589  0.4711
 2411SOL    HW1 9642   3.802   4.350   1.927  0.1445  0.2915  0.0672
 2411SOL    HW2 9643   3.835   4.475   1.849 -2.6032  1.7346  1.0965
 2411SOL     MW 9644   3.832   4.432   1.925  0.1524  0.3032  0.4994
 2412SOL     OW 9645   3.431   3.922   0.222 -0.2416  0.3829  0.1772
 2412SOL    HW1 9646   3.351   3.974   0.223  0.1600  1.0189  1.4744
 2412SOL    HW2 9647   3.501   3.986   0.205 -0.1377 -0.4290 -2.8575
 2412SOL     MW 9648   3.430   3.937   0.220 -0.1769  0.3604 -0.0452
 2413SOL     OW 9649   4.027   4.435   3.993  1.0219  0.4080  0.3667
 2413SOL    HW1 9650   4.032   4.349   4.034 -2.2826 -0.2614 -0.3165
 2413SOL    HW2 9651   4.036   4.497   4.066  2.4655 -0.5178  1.0053
 2413SOL     MW 9652   4.028   4.432   4.008  0.7837  0.2038  0.3610
 2414SOL     OW 9653   3.882   1.464   2.992 -0.6280 -0.5674  0.2487
 2414SOL    HW1 9654   3.818   1.398   3.021 -1.0417 -1.1654 -1.8355
 2414SOL    HW2 9655   3.838   1.548   3.006 -1.6926 -0.9461 -0.6215
 2414SOL     MW 9656   3.868   1.466   2.997 -0.8172 -0.6924 -0.1295
 2415SOL     OW 9657   2.479   4.991   2.071 -0.3147  1.0244 -0.1259
 2415SOL    HW1 9658   2.475   5.007   2.165 -0.4844 -0.3795  0.1266
 2415SOL    HW2 9659   2.409   4.929   2.054  1.8493 -1.4731 -0.5677
 2415SOL     MW 9660   2.470   4.985   2.081 -0.0594  0.5250 -0.1501
 2416SOL     OW 9661   0.091   5.006   5.106  0.2414  0.3576  0.1985
 2416SOL    HW1 9662   0.093   4.920   5.065  0.6362  0.8943 -0.9608
 2416SOL    HW2 9663   0.118   5.066   5.036  2.8666  1.1306  1.7281
 2416SOL     MW 9664   0.095   5.003   5.092  0.6280  0.5252  0.2459
 2417SOL     OW 9665   0.956   2.437   2.719  0.6155  0.1019 -0.0362
 2417SOL    HW1 9666   0.941   2.433   2.813  0.6042 -2.5402 -0.0844
 2417SOL    HW2 9667   0.946   2.530   2.697 -0.9134  0.5645  2.2883
 2417SOL     MW 9668   0.953   2.448   2.728  0.4183 -0.1771  0.2552
 2418SOL     OW 9669   3.450   1.586   3.000 -0.4045  0.5079 -0.3545
 2418SOL    HW1 9670   3.509   1.537   3.056 -1.2753  0.2530  0.3602
 2418SOL    HW2 9671   3.446   1.673   3.039 -0.4541  0.5424 -0.4354
 2418SOL     MW 9672   3.457   1.591   3.012 -0.5224  0.4797 -0.2734
 2419SOL     OW 9673   0.073   5.118   1.244 -0.7473 -0.3174 -0.2731
 2419SOL    HW1 9674   0.164   5.145   1.260 -0.5184 -1.3833  0.2902
 2419SOL    HW2 9675   0.021   5.179   1.297 -0.3838  0.3956 -0.7138
 2419SOL     MW 9676   0.078   5.130   1.253 -0.6714 -0.3626 -0.2574
 2420SOL     OW 9677   3.084   2.467   4.857 -0.1776 -0.1437 -0.2849
 2420SOL    HW1 9678   3.136   2.391   4.832  1.5466  0.9384 -0.1361
 2420SOL    HW2 9679   3.075   2.518   4.776 -0.0231  0.2510 -0.0520
 2420SOL     MW 9680   3.089   2.463   4.843  0.0629  0.0454 -0.2360
 2421SOL     OW 9681   3.673   1.385   0.489 -0.3094 -0.0499  0.5242
 2421SOL    HW1 9682   3.702   1.465   0.533 -0.3988 -1.1027  2.6090
 2421SOL    HW2 9683   3.660   1.411   0.398  0.9912  1.9688  0.8538
 2421SOL     MW 9684   3.675   1.399   0.483 -0.1544  0.0737  0.8332
 2422SOL     OW 9685   4.761   2.043   0.977  0.0091 -0.6592  0.8320
 2422SOL    HW1 9686   4.782   1.961   1.020  0.2459  0.7174  3.5290
 2422SOL    HW2 9687   4.844   2.072   0.938  0.2044 -1.1108  0.9102
 2422SOL     MW 9688   4.774   2.036   0.977  0.0644 -0.5408  1.1873
 2423SOL     OW 9689   2.624   4.647   0.236  0.3893 -0.2058  0.5447
 2423SOL    HW1 9690   2.568   4.682   0.167 -0.3059  0.1040  1.2488
 2423SOL    HW2 9691   2.565   4.633   0.310  1.5084  1.6681  1.8730
 2423SOL     MW 9692   2.609   4.650   0.237  0.4436  0.0737  0.8049
 2424SOL     OW 9693   0.829   5.017   0.697  0.2352  0.2400  0.2787
 2424SOL    HW1 9694   0.863   4.961   0.628  0.8875  0.8836  0.0741
 2424SOL    HW2 9695   0.734   5.008   0.689  0.3133 -0.1414 -0.3220
 2424SOL     MW 9696   0.821   5.009   0.687  0.3287  0.2736  0.1756
 2425SOL     OW 9697   3.941   0.807   3.293 -0.2347  0.2286  0.3123
 2425SOL    HW1 9698   3.979   0.881   3.246 -0.8039  0.6233  0.4677
 2425SOL    HW2 9699   3.972   0.816   3.383 -0.0170  0.0762  0.2538
 2425SOL     MW 9700   3.950   0.817   3.298 -0.2797  0.2596  0.3247
 2426SOL     OW 9701   1.415   3.029   3.177 -0.4077 -0.0013  0.2665
 2426SOL    HW1 9702   1.374   2.963   3.121 -0.3819 -1.3540  1.7548
 2426SOL    HW2 9703   1.356   3.037   3.252  1.1081 -0.6953  1.6099
 2426SOL     MW 9704   1.402   3.021   3.180 -0.2104 -0.2633  0.6290
 2427SOL     OW 9705   0.315   0.216   1.343 -0.3848 -0.0864  0.3909
 2427SOL    HW1 9706   0.314   0.216   1.439  1.4748 -0.5521  0.4491
 2427SOL    HW2 9707   0.376   0.286   1.319 -2.2067  1.2532 -0.5399
 2427SOL     MW 9708   0.323   0.225   1.353 -0.3799  0.0255  0.2792
 2428SOL     OW 9709   0.058   1.460   1.505  0.6133  0.1987  0.2185
 2428SOL    HW1 9710   0.077   1.435   1.415 -0.3924  2.2629 -0.6328
 2428SOL    HW2 9711   0.066   1.555   1.506  0.2856  0.2602  2.2517
 2428SOL     MW 9712   0.061   1.469   1.494  0.4426  0.4708  0.3698
 2429SOL     OW 9713   3.058   0.057   4.889 -0.0513 -0.3921  0.3939
 2429SOL    HW1 9714   3.098  -0.028   4.905 -0.0719 -0.1752  1.6521
 2429SOL    HW2 9715   2.969   0.049   4.924  0.2719  0.4539  1.4443
 2429SOL     MW 9716   3.052   0.045   4.895 -0.0126 -0.2560  0.6895
 2430SOL     OW 9717   4.863   4.591   3.026 -0.3109  0.2756  0.2740
 2430SOL    HW1 9718   4.912   4.637   3.094 -1.6080  2.1844 -0.0149
 2430SOL    HW2 9719   4.928   4.574   2.957  0.4560  0.5857  0.9052
 2430SOL     MW 9720   4.878   4.595   3.026 -0.3787  0.5596  0.3178
 2431SOL     OW 9721   1.148   3.935   2.407 -0.0091 -0.4530  0.0062
 2431SOL    HW1 9722   1.077   3.881   2.441 -0.8736 -0.2452 -1.4042
 2431SOL    HW2 9723   1.121   3.958   2.318  1.0686  0.9903  0.0135
 2431SOL     MW 9724   1.136   3.931   2.400  0.0182 -0.2417 -0.1734
 2432SOL     OW 9725   2.431   4.233   3.268 -0.3630  0.2629  0.2647
 2432SOL    HW1 9726   2.403   4.205   3.181  0.0514 -0.3483  0.3198
 2432SOL    HW2 9727   2.350   4.257   3.313 -0.5941  0.4210 -0.2305
 2432SOL     MW 9728   2.417   4.233   3.263 -0.3395  0.2049  0.2083
 2433SOL     OW 9729   1.763   2.627   0.879 -0.2243 -0.7501 -1.1773
 2433SOL    HW1 9730   1.737   2.710   0.840 -0.0862 -0.0621  0.1547
 2433SOL    HW2 9731   1.817   2.585   0.811  1.3474  1.1259 -1.1812
 2433SOL     MW 9732   1.767   2.632   0.865 -0.0054 -0.4219 -1.0073
 2434SOL     OW 9733   1.931   2.545   3.696 -0.1610  0.5654 -0.0260
 2434SOL    HW1 9734   1.932   2.456   3.731 -0.5530  0.5213 -0.1262
 2434SOL    HW2 9735   1.844   2.555   3.656 -0.7485  1.5612  1.4348
 2434SOL     MW 9736   1.920   2.535   3.695 -0.2864  0.6872  0.1482
 2435SOL     OW 9737   3.247   3.874   5.260 -0.2898  0.2378  0.1402
 2435SOL    HW1 9738   3.186   3.806   5.289 -1.5677  0.7041 -1.2492
 2435SOL    HW2 9739   3.190   3.945   5.231  0.9907  1.4226  0.4575
 2435SOL     MW 9740   3.232   3.874   5.260 -0.2895  0.4491  0.0030
 2436SOL     OW 9741   0.199   4.711   4.548 -0.1386 -0.3977 -0.0070
 2436SOL    HW1 9742   0.266   4.768   4.586  0.0502 -1.3981  1.1969
 2436SOL    HW2 9743   0.168   4.760   4.472 -1.6344  2.4029  2.2251
 2436SOL     MW 9744   0.204   4.725   4.543 -0.3059 -0.1672  0.4328
 2437SOL     OW 9745   1.333   4.429   2.691  0.1227  0.2454  0.1954
 2437SOL    HW1 9746   1.353   4.483   2.767 -0.2620  0.5430  0.0841
 2437SOL    HW2 9747   1.324   4.491   2.618 -1.9715  0.2125  0.3798
 2437SOL     MW 9748   1.335   4.444   2.691 -0.1946  0.2793  0.2048
 2438SOL     OW 9749   3.629   4.513   5.118  0.1610 -0.0429  0.1223
 2438SOL    HW1 9750   3.645   4.423   5.089 -0.2733 -0.4653  1.1503
 2438SOL    HW2 9751   3.621   4.506   5.213  0.1461  1.0909  0.2115
 2438SOL     MW 9752   3.630   4.501   5.126  0.1035  0.0482  0.2653
 2439SOL     OW 9753   1.501   2.536   1.225  0.3384 -0.5135  0.0461
 2439SOL    HW1 9754   1.578   2.516   1.279  0.4876 -2.4883 -0.8211
 2439SOL    HW2 9755   1.428   2.534   1.287  0.8019 -0.1656  0.6160
 2439SOL     MW 9756   1.501   2.533   1.240  0.4168 -0.7217  0.0081
 2440SOL     OW 9757   4.623   5.418   5.425 -0.2363 -0.3840 -0.6958
 2440SOL    HW1 9758   4.580   5.501   5.445  1.0297  0.0551  0.3063
 2440SOL    HW2 9759   4.575   5.353   5.476 -0.7423 -0.1687 -0.8859
 2440SOL     MW 9760   4.612   5.420   5.434 -0.1390 -0.3002 -0.5918
 2441SOL     OW 9761   1.249   0.572   0.875 -0.1741 -0.0581  0.1924
 2441SOL    HW1 9762   1.172   0.516   0.867 -0.7765  0.7759 -0.0657
 2441SOL    HW2 9763   1.316   0.516   0.914 -0.4330 -1.2366 -0.9682
 2441SOL     MW 9764   1.248   0.558   0.879 -0.2844 -0.1022  0.0108
 2442SOL     OW 9765   4.585   1.209   3.504  0.1838  0.0705  0.0438
 2442SOL    HW1 9766   4.653   1.146   3.528  1.3041  1.3562  0.3133
 2442SOL    HW2 9767   4.570   1.192   3.411 -1.2042 -2.1180  0.5841
 2442SOL     MW 9768   4.592   1.198   3.495  0.1495 -0.0451  0.1475
 2443SOL     OW 9769   1.648   1.501   5.039  0.7082  0.5852  0.6570
 2443SOL    HW1 9770   1.649   1.533   4.949 -0.8463 -0.0961  0.3805
 2443SOL    HW2 9771   1.727   1.446   5.045 -0.9673 -2.3502 -1.4609
 2443SOL     MW 9772   1.658   1.498   5.028  0.2947  0.1222  0.3505
 2444SOL     OW 9773   3.647   1.373   1.240  0.0407 -0.3420  0.7620
 2444SOL    HW1 9774   3.571   1.430   1.251  0.4552  0.8103 -1.6466
 2444SOL    HW2 9775   3.698   1.383   1.320  0.2589  3.0119  0.3389
 2444SOL     MW 9776   3.644   1.382   1.252  0.1217  0.2349  0.3995
 2445SOL     OW 9777   1.389   3.967   0.849 -0.1662 -0.0414 -0.5026
 2445SOL    HW1 9778   1.354   3.944   0.935  0.5611  1.1507  0.1463
 2445SOL    HW2 9779   1.478   3.997   0.867 -0.7305  2.4058 -1.3113
 2445SOL     MW 9780   1.396   3.968   0.862 -0.1454  0.4245 -0.5231
 2446SOL     OW 9781   5.303   1.372   1.891  0.0718  0.2504 -0.5194
 2446SOL    HW1 9782   5.300   1.349   1.798  0.8783  2.1156 -1.0436
 2446SOL    HW2 9783   5.388   1.413   1.903  1.1383 -2.3511  1.6947
 2446SOL     MW 9784   5.313   1.374   1.880  0.3115  0.1561 -0.3030
 2447SOL     OW 9785   1.964   2.501   1.461 -0.4771  0.1251 -0.5376
 2447SOL    HW1 9786   1.998   2.412   1.445 -1.7743 -0.6162  0.6715
 2447SOL    HW2 9787   1.872   2.496   1.437 -0.2388  1.5949 -1.9198
 2447SOL     MW 9788   1.957   2.489   1.456 -0.6127  0.2184 -0.5597
 2448SOL     OW 9789   0.348   0.450   0.605 -0.2480  0.2363  0.3345
 2448SOL    HW1 9790   0.404   0.487   0.537 -0.2591  0.9980  0.7332
 2448SOL    HW2 9791   0.277   0.513   0.615 -1.1936 -0.7250 -0.1753
 2448SOL     MW 9792   0.346   0.462   0.598 -0.3705  0.2107  0.3203
 2449SOL     OW 9793   4.720   0.374   1.243 -0.3786 -0.3481 -0.1091
 2449SOL    HW1 9794   4.640   0.363   1.191 -0.1531 -0.6607 -0.3934
 2449SOL    HW2 9795   4.699   0.444   1.305 -0.7152 -0.0999 -0.4973
 2449SOL     MW 9796   4.707   0.382   1.244 -0.3928 -0.3564 -0.1952
 2450SOL     OW 9797   5.274   1.468   0.345  0.3523 -0.3049 -0.2521
 2450SOL    HW1 9798   5.261   1.374   0.330  1.2151 -0.6095  0.7338
 2450SOL    HW2 9799   5.186   1.505   0.341 -0.2104 -1.4190  0.8938
 2450SOL     MW 9800   5.261   1.460   0.343  0.3907 -0.4865  0.0208
 2451SOL     OW 9801   2.446   0.122   5.283 -0.2638 -0.4572  0.8461
 2451SOL    HW1 9802   2.387   0.181   5.237  0.8489  0.5541  0.6645
 2451SOL    HW2 9803   2.461   0.050   5.222  0.5886  0.4919 -0.0995
 2451SOL     MW 9804   2.440   0.120   5.270 -0.0123 -0.2062  0.7018
 2452SOL     OW 9805   0.806   3.088   2.860  0.4826  0.2758  0.0583
 2452SOL    HW1 9806   0.825   3.085   2.766 -2.4434  0.5939 -0.6515
 2452SOL    HW2 9807   0.745   3.161   2.870 -0.3949 -0.6396  1.9518
 2452SOL     MW 9808   0.801   3.097   2.849 -0.0043  0.1994  0.2098
 2453SOL     OW 9809   0.776   0.463   4.174 -0.0687 -0.1358 -0.3142
 2453SOL    HW1 9810   0.799   0.397   4.239 -0.1645  0.3629  0.2357
 2453SOL    HW2 9811   0.697   0.504   4.208  1.7677  2.5426  1.1046
 2453SOL     MW 9812   0.769   0.460   4.186  0.1541  0.2709 -0.0622
 2454SOL     OW 9813   3.495   3.587   1.161 -0.4566 -0.1485  0.2179
 2454SOL    HW1 9814   3.446   3.668   1.146  1.6317  1.3344  0.7995
 2454SOL    HW2 9815   3.496   3.544   1.075 -2.1029  0.1172  0.0290
 2454SOL     MW 9816   3.489   3.592   1.148 -0.4000  0.0754  0.2682
 2455SOL     OW 9817   2.443   4.727   1.643 -0.5402  0.1615  0.4584
 2455SOL    HW1 9818   2.517   4.766   1.690 -0.2419  0.7484 -0.4710
 2455SOL    HW2 9819   2.392   4.683   1.711  0.4773  0.0310  1.1679
 2455SOL     MW 9820   2.446   4.726   1.657 -0.3717  0.2199  0.4303
 2456SOL     OW 9821   3.249   1.132   2.954 -0.0685 -0.3997 -0.0533
 2456SOL    HW1 9822   3.168   1.104   2.996 -1.0861  0.6574 -1.2050
 2456SOL    HW2 9823   3.269   1.217   2.994  1.2830 -1.2850  1.2285
 2456SOL     MW 9824   3.241   1.140   2.964 -0.0258 -0.3777 -0.0367
 2457SOL     OW 9825   2.390   2.130   5.292 -0.2827  0.3825  0.6084
 2457SOL    HW1 9826   2.456   2.191   5.261 -0.3986  0.6665  0.9079
 2457SOL    HW2 9827   2.308   2.162   5.255 -0.4237  0.7329  1.1985
 2457SOL     MW 9828   2.388   2.142   5.284 -0.3155  0.4637  0.7223
 2458SOL     OW 9829   4.309   0.845   3.020 -0.6599  0.4272  0.3220
 2458SOL    HW1 9830   4.310   0.756   3.054 -1.7741  0.1214 -0.3683
 2458SOL    HW2 9831   4.312   0.834   2.925 -0.5069  1.1363  0.2386
 2458SOL     MW 9832   4.309   0.832   3.012 -0.7829  0.4788  0.2230
 2459SOL     OW 9833   4.364   1.381   5.217 -0.1198 -0.0336  0.6282
 2459SOL    HW1 9834   4.350   1.369   5.123  0.6546  0.3524  0.4516
 2459SOL    HW2 9835   4.459   1.371   5.228 -0.3412 -1.4148  1.5702
 2459SOL     MW 9836   4.375   1.378   5.206 -0.0490 -0.1610  0.7262
 2460SOL     OW 9837   2.625   4.247   4.531  0.0164 -0.0757 -0.1694
 2460SOL    HW1 9838   2.567   4.299   4.587  1.9770  1.7314  0.3300
 2460SOL    HW2 9839   2.603   4.276   4.442  0.0894  0.5481  0.0091
 2460SOL     MW 9840   2.615   4.258   4.527  0.2767  0.2355 -0.0827
 2461SOL     OW 9841   3.719   0.091   0.789 -0.4911  0.1921  0.3231
 2461SOL    HW1 9842   3.624   0.088   0.787 -0.4539 -2.5246 -0.3409
 2461SOL    HW2 9843   3.745   0.110   0.698 -0.3594  1.7631  0.6564
 2461SOL     MW 9844   3.710   0.093   0.777 -0.4695  0.0454  0.2808
 2462SOL     OW 9845   1.206   3.479   3.787  0.1615 -0.1948  0.2404
 2462SOL    HW1 9846   1.123   3.434   3.771 -0.1706  0.7144 -0.6921
 2462SOL    HW2 9847   1.182   3.560   3.831  0.3421  0.8578 -1.4751
 2462SOL     MW 9848   1.193   3.483   3.790  0.1421  0.0564 -0.0986
 2463SOL     OW 9849   2.626   2.044   1.512  0.2709 -0.6820  0.1652
 2463SOL    HW1 9850   2.715   2.041   1.547  0.2016  0.0379  0.4217
 2463SOL    HW2 9851   2.571   2.008   1.582  0.3275 -0.8467  0.1243
 2463SOL     MW 9852   2.630   2.039   1.526  0.2693 -0.6109  0.1928
 2464SOL     OW 9853   0.342   5.154   2.447  0.0446 -0.2185  0.1986
 2464SOL    HW1 9854   0.390   5.078   2.414 -1.6825 -0.6532 -1.4498
 2464SOL    HW2 9855   0.251   5.138   2.423 -0.4934  1.9671  0.5635
 2464SOL     MW 9856   0.337   5.142   2.440 -0.2454  0.0056  0.0343
 2465SOL     OW 9857   3.015   4.669   1.429  0.0489  0.5406 -0.1032
 2465SOL    HW1 9858   2.928   4.695   1.461  0.6395  0.4816  1.6344
 2465SOL    HW2 9859   3.073   4.740   1.457  0.7856 -0.0487 -0.1265
 2465SOL     MW 9860   3.011   4.682   1.436  0.2188  0.4576  0.1162
 2466SOL     OW 9861   2.961   1.543   4.770  0.2751  0.2146  0.2948
 2466SOL    HW1 9862   2.898   1.615   4.773  1.9553  1.7376  2.3720
 2466SOL    HW2 9863   3.028   1.567   4.835  2.6944 -1.5698 -1.3532
 2466SOL     MW 9864   2.962   1.555   4.779  0.7999  0.1811  0.3498
 2467SOL     OW 9865   3.612   1.743   0.496  0.5739  0.2781 -0.4659
 2467SOL    HW1 9866   3.669   1.802   0.446  1.5172 -1.4214 -1.5029
 2467SOL    HW2 9867   3.673   1.685   0.542 -0.3148 -0.7142 -0.5222
 2467SOL     MW 9868   3.627   1.743   0.495  0.5809 -0.0665 -0.6058
 2468SOL     OW 9869   0.901   0.466   1.483 -0.0756  0.6122  0.4539
 2468SOL    HW1 9870   0.906   0.410   1.561  1.0072  0.7693  0.5176
 2468SOL    HW2 9871   0.896   0.555   1.518  0.1609  0.6679  0.3451
 2468SOL     MW 9872   0.901   0.470   1.497  0.0933  0.6395  0.4481
 2469SOL     OW 9873   3.684   4.273   3.284  0.1813 -0.1140  0.3460
 2469SOL    HW1 9874   3.721   4.267   3.196  1.7868  1.8419  0.8297
 2469SOL    HW2 9875   3.752   4.237   3.341 -0.2035  0.0803  0.9366
 2469SOL     MW 9876   3.697   4.267   3.280  0.3376  0.1612  0.4835
 2470SOL     OW 9877   1.610   3.504   1.671  0.3122 -0.0506  0.5129
 2470SOL    HW1 9878   1.682   3.535   1.616  2.3013 -1.4384  2.1996
 2470SOL    HW2 9879   1.585   3.580   1.722 -0.5212  0.8456 -1.1291
 2470SOL     MW 9880   1.616   3.518   1.670  0.4602 -0.1135  0.5187
 2471SOL     OW 9881   4.078   4.869   4.630 -0.3210  0.4562  0.1488
 2471SOL    HW1 9882   3.994   4.829   4.606 -0.0000  0.1862 -0.5566
 2471SOL    HW2 9883   4.059   4.963   4.637 -0.8875  0.2846  0.9438
 2471SOL     MW 9884   4.065   4.876   4.628 -0.3524  0.3997  0.1603
 2472SOL     OW 9885   2.099   3.136   1.548  0.2352 -0.2976 -0.4564
 2472SOL    HW1 9886   2.156   3.166   1.619 -1.6941  0.2026  0.9791
 2472SOL    HW2 9887   2.026   3.198   1.547  0.7655  0.4654 -3.7816
 2472SOL     MW 9888   2.097   3.147   1.557  0.0561 -0.1359 -0.6983
 2473SOL     OW 9889   0.057   3.851   5.287 -0.1028  0.4988 -0.2547
 2473SOL    HW1 9890  -0.018   3.836   5.344  0.5625  1.0086  0.7925
 2473SOL    HW2 9891   0.075   3.765   5.248  0.1008 -0.1453  1.1858
 2473SOL     MW 9892   0.050   3.838   5.290  0.0084  0.4816  0.0638
 2474SOL     OW 9893   2.166   4.876   4.616  0.2169 -0.1489  0.2735
 2474SOL    HW1 9894   2.092   4.931   4.641  1.8097  1.8308  0.8472
 2474SOL    HW2 9895   2.163   4.803   4.678  0.5659  1.5743  2.4533
 2474SOL     MW 9896   2.156   4.874   4.628  0.4655  0.3251  0.6260
 2475SOL     OW 9897   1.684   2.234   0.380 -0.5613  0.2791 -0.1049
 2475SOL    HW1 9898   1.778   2.235   0.365 -0.6961  1.3783 -1.0043
 2475SOL    HW2 9899   1.653   2.317   0.344 -1.9844 -0.4233 -0.5736
 2475SOL     MW 9900   1.692   2.245   0.373 -0.7607  0.3299 -0.2801
 2476SOL     OW 9901   3.083   0.605   0.844 -0.0652  0.4111  0.1913
 2476SOL    HW1 9902   3.021   0.676   0.859 -0.4316  0.1405  0.0041
 2476SOL    HW2 9903   3.041   0.552   0.776 -0.7774 -1.1087  1.7379
 2476SOL     MW 9904   3.069   0.607   0.837 -0.2033  0.1819  0.3654
 2477SOL     OW 9905   0.496   0.248   4.371  0.0222  0.3821  0.1640
 2477SOL    HW1 9906   0.445   0.253   4.290  1.2454  1.1890 -0.5804
 2477SOL    HW2 9907   0.508   0.154   4.386  0.6912  0.2369 -1.1832
 2477SOL     MW 9908   0.491   0.237   4.362  0.2644  0.4668 -0.1037
 2478SOL     OW 9909   2.945   5.161   0.482 -0.4315  0.0456  0.0230
 2478SOL    HW1 9910   2.910   5.175   0.571 -0.8556  0.4477 -0.2015
 2478SOL    HW2 9911   3.023   5.217   0.479  0.6719 -1.3963  0.7647
 2478SOL     MW 9912   2.951   5.170   0.493 -0.3446 -0.0875  0.0892
 2479SOL     OW 9913   5.376   3.848   1.386 -0.2555 -0.1331 -0.3799
 2479SOL    HW1 9914   5.347   3.939   1.384 -1.2703 -0.4473 -0.1964
 2479SOL    HW2 9915   5.305   3.800   1.429  0.7756 -0.8348  0.6330
 2479SOL     MW 9916   5.363   3.853   1.391 -0.2534 -0.2632 -0.2267
 2480SOL     OW 9917   4.339   0.451   2.473  0.9217  0.2664  0.1709
 2480SOL    HW1 9918   4.413   0.503   2.503  1.1274  0.3053 -0.3836
 2480SOL    HW2 9919   4.372   0.405   2.396  0.6558 -0.4647  0.4818
 2480SOL     MW 9920   4.352   0.451   2.467  0.9140  0.1778  0.1397
 2481SOL     OW 9921   1.498   3.103   0.763 -0.0106 -0.3078 -0.3966
 2481SOL    HW1 9922   1.535   3.015   0.750  0.5307 -0.3817  1.3527
 2481SOL    HW2 9923   1.469   3.130   0.676  1.9770 -1.2426 -1.4186
 2481SOL     MW 9924   1.499   3.095   0.750  0.3131 -0.4369 -0.3035
 2482SOL     OW 9925   1.624   4.117   4.958 -0.0323 -0.2334 -0.1900
 2482SOL    HW1 9926   1.595   4.036   4.999 -0.8101  0.5203  0.8133
 2482SOL    HW2 9927   1.562   4.183   4.989  0.7256  0.7897 -0.7814
 2482SOL     MW 9928   1.613   4.115   4.967 -0.0348 -0.0060 -0.1373
 2483SOL     OW 9929   0.173   0.865   4.349 -0.0390 -0.1104 -0.0081
 2483SOL    HW1 9930   0.082   0.891   4.362  0.0101  0.7949 -1.3203
 2483SOL    HW2 9931   0.219   0.900   4.425 -0.6646  0.0854  0.2834
 2483SOL     MW 9932   0.167   0.873   4.360 -0.1128  0.0306 -0.1387
 2484SOL     OW 9933   4.494   0.314   4.285 -0.2615  0.3430  0.3463
 2484SOL    HW1 9934   4.582   0.344   4.262  0.1386 -0.0131  1.3874
 2484SOL    HW2 9935   4.436   0.376   4.240  0.4677 -0.4327 -1.7554
 2484SOL     MW 9936   4.498   0.326   4.276 -0.1169  0.1981  0.2105
 2485SOL     OW 9937   2.521   2.011   1.208 -0.8456  0.5595 -0.0016
 2485SOL    HW1 9938   2.608   2.032   1.242 -0.8440 -0.5533  0.7207
 2485SOL    HW2 9939   2.462   2.030   1.281 -1.1304  0.6649 -0.2600
 2485SOL     MW 9940   2.525   2.016   1.222 -0.8819  0.4306  0.0578
 2486SOL     OW 9941   3.084   2.873   1.197  0.3193  0.3163 -0.0998
 2486SOL    HW1 9942   3.042   2.948   1.156  1.1257  1.3662  0.9096
 2486SOL    HW2 9943   3.113   2.906   1.282  0.9438 -1.0695  0.2513
 2486SOL     MW 9944   3.082   2.886   1.203  0.5025  0.2733  0.0744
 2487SOL     OW 9945   1.329   3.465   3.377 -0.1623 -0.2000 -0.6032
 2487SOL    HW1 9946   1.353   3.415   3.455  2.7582  2.4970  0.4291
 2487SOL    HW2 9947   1.236   3.486   3.389  0.0079 -0.5340  1.7552
 2487SOL     MW 9948   1.320   3.461   3.388  0.2334  0.1025 -0.1691
 2488SOL     OW 9949   2.382   1.303   3.927  0.2127 -0.2775  0.2373
 2488SOL    HW1 9950   2.424   1.228   3.887  2.6759  2.1168 -2.0852
 2488SOL    HW2 9951   2.448   1.338   3.987  0.8954  2.2872 -1.8186
 2488SOL     MW 9952   2.396   1.298   3.930  0.6154  0.3573 -0.3232
 2489SOL     OW 9953   3.595   1.473   3.598 -0.6783  0.4431  0.4038
 2489SOL    HW1 9954   3.539   1.534   3.648 -0.1720  0.6800  0.6890
 2489SOL    HW2 9955   3.599   1.395   3.653 -2.7247 -0.5463 -0.7289
 2489SOL     MW 9956   3.588   1.471   3.612 -0.8754  0.3467  0.2953
 2490SOL     OW 9957   2.038   0.389   3.506  0.3596  0.2391 -0.0294
 2490SOL    HW1 9958   1.998   0.304   3.520 -1.1582  1.1477  1.4836
 2490SOL    HW2 9959   2.041   0.399   3.411 -0.6638 -0.9363 -0.2072
 2490SOL     MW 9960   2.033   0.379   3.496  0.0343  0.2050  0.1415
 2491SOL     OW 9961   4.505   2.788   1.017 -0.0137  0.2734 -0.1363
 2491SOL    HW1 9962   4.450   2.713   0.998  0.1308  0.3349 -0.8499
 2491SOL    HW2 9963   4.495   2.846   0.941 -0.3587  1.1219  0.5316
 2491SOL     MW 9964   4.497   2.786   1.005 -0.0394  0.3899 -0.1421
 2492SOL     OW 9965   2.061   0.364   3.982 -0.4979  0.3332  0.3449
 2492SOL    HW1 9966   2.108   0.403   4.056 -2.4253  2.7824  0.4194
 2492SOL    HW2 9967   2.044   0.437   3.923 -0.3651 -1.2774 -1.8216
 2492SOL     MW 9968   2.065   0.378   3.984 -0.7276  0.4406  0.0771
 2493SOL     OW 9969   3.318   2.169   1.274  0.1244 -1.4750  0.6502
 2493SOL    HW1 9970   3.393   2.229   1.267  0.1351 -1.4819  0.7028
 2493SOL    HW2 9971   3.252   2.219   1.322  0.0734 -1.4476  0.5512
 2493SOL     MW 9972   3.319   2.183   1.280  0.1193 -1.4724  0.6443
 2494SOL     OW 9973   3.782   2.894   3.656 -0.4392 -0.5690 -0.0030
 2494SOL    HW1 9974   3.719   2.824   3.672 -0.0013 -1.0275 -0.2799
 2494SOL    HW2 9975   3.845   2.857   3.594 -1.2722  0.6906 -1.6807
 2494SOL     MW 9976   3.782   2.880   3.650 -0.4898 -0.4664 -0.2532
 2495SOL     OW 9977   1.300   1.200   0.595  0.5165 -0.2574 -0.2829
 2495SOL    HW1 9978   1.299   1.217   0.689 -1.7708  0.3818 -0.3664
 2495SOL    HW2 9979   1.350   1.119   0.586  0.9420 -0.2188  1.4588
 2495SOL     MW 9980   1.306   1.192   0.606  0.2782 -0.1706 -0.0706
 2496SOL     OW 9981   2.058   2.481   0.214  0.2928  0.1507  0.0004
 2496SOL    HW1 9982   2.061   2.575   0.196 -0.0530  0.0398 -0.6610
 2496SOL    HW2 9983   1.991   2.471   0.281  0.5357  0.4055  0.2841
 2496SOL     MW 9984   2.050   2.492   0.220  0.2796  0.1691 -0.0480
 2497SOL     OW 9985   0.701   3.164   0.205  0.5103  0.0077  0.1757
 2497SOL    HW1 9986   0.665   3.252   0.189  0.2756 -0.1693 -0.3083
 2497SOL    HW2 9987   0.701   3.123   0.118 -2.1747 -1.5262  0.7790
 2497SOL     MW 9988   0.696   3.170   0.192  0.1366 -0.2113  0.1910
 2498SOL     OW 9989   4.405   4.849   2.636  0.4393  0.1286 -0.3843
 2498SOL    HW1 9990   4.486   4.895   2.659  1.8930 -3.3470  2.6069
 2498SOL    HW2 9991   4.431   4.790   2.565  0.3666 -0.4747  0.0829
 2498SOL     MW 9992   4.419   4.847   2.630  0.6161 -0.3936  0.0584
 2499SOL     OW 9993   3.267   4.023   1.973  0.1211  0.5599  0.0834
 2499SOL    HW1 9994   3.329   4.012   2.046 -0.2242  1.1624  0.4768
 2499SOL    HW2 9995   3.181   4.022   2.015 -0.0393  1.9247 -0.1846
 2499SOL     MW 9996   3.264   4.021   1.988  0.0563  0.8117  0.0995
 2500SOL     OW 9997   5.248   5.051   3.269 -0.1966 -0.2347  0.0812
 2500SOL    HW1 9998   5.271   5.144   3.273  1.1995 -0.5709  0.4123
 2500SOL    HW2 9999   5.153   5.050   3.265 -0.2378  1.2090  0.2373
 2500SOL     MW10000   5.239   5.063   3.269 -0.0232 -0.0929  0.1436
 2501SOL     OW10001   0.948   0.647   2.344 -0.0353  0.3129  0.0389
 2501SOL    HW110002   0.938   0.742   2.339 -0.6322  0.2162 -0.7674
 2501SOL    HW210003   0.871   0.617   2.392  1.2512  0.4117  2.2998
 2501SOL     MW10004   0.937   0.656   2.350  0.0530  0.3132  0.2251
 2502SOL     OW10005   0.501   3.581   1.657 -0.7794 -0.9280 -0.0120
 2502SOL    HW110006   0.439   3.610   1.590 -1.3090  0.8304  1.2025
 2502SOL    HW210007   0.453   3.516   1.707 -0.7319 -1.4777 -0.6553
 2502SOL     MW10008   0.487   3.576   1.655 -0.8411 -0.7733  0.0611
 2503SOL     OW10009   3.095   3.957   2.186 -0.0698  0.1741 -0.5733
 2503SOL    HW110010   3.137   3.969   2.271 -1.2572 -1.9529  0.4057
 2503SOL    HW210011   3.019   4.016   2.188 -0.4219 -0.2899  0.1100
 2503SOL     MW10012   3.091   3.966   2.197 -0.2669 -0.1576 -0.3605
 2504SOL     OW10013   1.905   4.951   4.686  0.2197 -0.5511 -0.1393
 2504SOL    HW110014   1.938   4.974   4.773 -0.4111 -0.1035 -0.0115
 2504SOL    HW210015   1.901   4.855   4.687 -3.8421 -0.5871  1.9507
 2504SOL     MW10016   1.908   4.942   4.697 -0.3810 -0.4984  0.1446
 2505SOL     OW10017   4.404   4.194   1.208  0.2601  0.0498  0.2953
 2505SOL    HW110018   4.418   4.287   1.225  0.6520 -0.3183  2.2575
 2505SOL    HW210019   4.314   4.188   1.176  0.3820  1.1349 -0.2917
 2505SOL     MW10020   4.395   4.205   1.206  0.3259  0.1416  0.4713
 2506SOL     OW10021   2.867   0.834   0.226  0.8332 -0.0144 -0.1864
 2506SOL    HW110022   2.804   0.883   0.173  0.3724 -0.8209 -0.4081
 2506SOL    HW210023   2.898   0.897   0.291 -0.1891  0.4078 -0.0883
 2506SOL     MW10024   2.863   0.848   0.227  0.6433 -0.0636 -0.2022
 2507SOL     OW10025   1.181   4.418   1.008  0.0712  0.4359 -0.6255
 2507SOL    HW110026   1.096   4.411   1.051  0.1953 -4.4766 -0.5693
 2507SOL    HW210027   1.162   4.455   0.922 -2.2722 -1.0129 -0.7982
 2507SOL     MW10028   1.168   4.422   1.002 -0.2129 -0.3784 -0.6404
 2508SOL     OW10029   4.881   2.978   3.554 -0.0832 -0.1402  0.1837
 2508SOL    HW110030   4.963   2.979   3.503 -1.2578 -0.6407 -1.8345
 2508SOL    HW210031   4.872   2.887   3.582 -1.1987 -0.7047 -1.8403
 2508SOL     MW10032   4.891   2.966   3.551 -0.3763 -0.2765 -0.3337
 2509SOL     OW10033   2.407   0.734   3.071  0.4526  0.3668  0.3405
 2509SOL    HW110034   2.322   0.691   3.070  0.5663  0.1140 -0.9477
 2509SOL    HW210035   2.387   0.826   3.084  0.0872  0.1595  1.3653
 2509SOL     MW10036   2.394   0.740   3.072  0.4203  0.3079  0.3068
 2510SOL     OW10037   2.851   3.618   0.088  0.2501  0.4115  0.2507
 2510SOL    HW110038   2.774   3.635   0.142  1.0574  1.3385  1.1783
 2510SOL    HW210039   2.894   3.544   0.131  0.3400  0.4701  0.2620
 2510SOL     MW10040   2.847   3.611   0.101  0.3650  0.5376  0.3709
 2511SOL     OW10041   0.341   5.409   2.565  0.7119 -0.0794 -0.3128
 2511SOL    HW110042   0.326   5.322   2.527  2.4424 -0.4277 -0.3032
 2511SOL    HW210043   0.297   5.469   2.505 -1.9737 -1.0219  0.5750
 2511SOL     MW10044   0.334   5.406   2.553  0.5896 -0.2446 -0.1979
 2512SOL     OW10045   2.932   2.905   0.399 -0.3765 -0.4327  0.0490
 2512SOL    HW110046   2.953   2.812   0.412  1.6851  0.1262  1.1761
 2512SOL    HW210047   2.968   2.925   0.312 -1.8344 -0.9224 -0.6929
 2512SOL     MW10048   2.939   2.895   0.389 -0.2993 -0.4239  0.0983
 2513SOL     OW10049   2.922   0.951   4.219 -0.1541  0.5327  0.1730
 2513SOL    HW110050   2.956   0.963   4.307 -1.6782 -0.4467  0.9413
 2513SOL    HW210051   2.857   0.881   4.228 -2.8571  2.7198 -1.0339
 2513SOL     MW10052   2.918   0.943   4.231 -0.6952  0.6873  0.1169
 2514SOL     OW10053   1.318   2.891   2.600 -0.6259 -0.9582  0.4075
 2514SOL    HW110054   1.368   2.943   2.536  0.0145  1.0290  2.3870
 2514SOL    HW210055   1.241   2.862   2.551 -0.0723  0.3041 -1.3395
 2514SOL     MW10056   1.314   2.894   2.585 -0.4731 -0.5423  0.4373
 2515SOL     OW10057   1.608   2.563   5.462 -0.3400 -0.3279 -0.0674
 2515SOL    HW110058   1.531   2.583   5.409 -0.6437  0.2621  0.5842
 2515SOL    HW210059   1.637   2.477   5.430 -0.9662 -0.3310 -0.6574
 2515SOL     MW10060   1.602   2.554   5.451 -0.4591 -0.2528 -0.0595
 2516SOL     OW10061   5.457   4.490   4.330 -0.0900  0.3345  0.4149
 2516SOL    HW110062   5.514   4.516   4.258  0.3884 -1.1932  0.2030
 2516SOL    HW210063   5.413   4.571   4.356  1.1950  1.2947 -0.2744
 2516SOL     MW10064   5.459   4.503   4.324  0.1357  0.2618  0.2996
 2517SOL     OW10065   5.176   0.732   2.061 -0.1437 -0.0212 -0.3334
 2517SOL    HW110066   5.114   0.709   1.992 -2.1401  1.3053  0.8828
 2517SOL    HW210067   5.227   0.804   2.024 -2.4687  1.9841  0.0590
 2517SOL     MW10068   5.174   0.738   2.047 -0.6969  0.4053 -0.1275
 2518SOL     OW10069   4.671   4.638   3.468 -0.2712 -0.1164  0.1593
 2518SOL    HW110070   4.583   4.671   3.447 -0.2696 -0.8172 -1.0575
 2518SOL    HW210071   4.677   4.555   3.422  0.9808 -0.1598  0.3603
 2518SOL     MW10072   4.660   4.632   3.459 -0.1107 -0.2117  0.0293
 2519SOL     OW10073   5.008   3.043   5.394  0.1382 -0.4262  0.3206
 2519SOL    HW110074   4.923   3.016   5.359 -0.1755 -0.4835  1.1031
 2519SOL    HW210075   5.039   3.110   5.333  0.2664 -1.5128 -0.8545
 2519SOL     MW10076   5.001   3.048   5.382  0.1145 -0.5726  0.2704
 2520SOL     OW10077   2.771   0.428   3.994 -0.1778  0.6306  0.1402
 2520SOL    HW110078   2.765   0.408   4.087  0.1675  0.0532  0.0379
 2520SOL    HW210079   2.681   0.419   3.962 -0.7408  2.9762  0.8283
 2520SOL     MW10080   2.759   0.424   4.002 -0.2057  0.8570  0.2152
 2521SOL     OW10081   2.906   0.678   1.418 -0.8629 -0.3588  0.1027
 2521SOL    HW110082   2.974   0.745   1.421 -1.4165  0.2225  3.3522
 2521SOL    HW210083   2.839   0.714   1.360  0.2734  0.3993 -0.7657
 2521SOL     MW10084   2.906   0.691   1.411 -0.7883 -0.1874  0.4075
 2522SOL     OW10085   4.917   3.923   4.225  0.8750  0.0602 -0.0063
 2522SOL    HW110086   4.857   3.898   4.295  2.5851  0.8449  1.8445
 2522SOL    HW210087   4.884   4.007   4.194  0.7926  0.3359  0.7829
 2522SOL     MW10088   4.905   3.931   4.230  1.0834  0.1959  0.3316
 2523SOL     OW10089   2.643   4.115   3.677 -0.5057  0.0678  0.0091
 2523SOL    HW110090   2.605   4.031   3.649 -1.6506  0.0497  1.4727
 2523SOL    HW210091   2.572   4.178   3.664  0.4877  0.9278 -1.4832
 2523SOL     MW10092   2.629   4.112   3.672 -0.5251  0.1755  0.0054
 2524SOL     OW10093   0.975   2.570   3.589 -0.4477 -0.0271 -0.3875
 2524SOL    HW110094   1.058   2.553   3.543 -1.4242 -0.2756 -2.1199
 2524SOL    HW210095   0.972   2.503   3.658  1.3277  0.7279  0.5008
 2524SOL     MW10096   0.986   2.559   3.592 -0.3454  0.0378 -0.4956
 2525SOL     OW10097   1.354   2.743   0.664  0.2060  0.8566 -0.5793
 2525SOL    HW110098   1.373   2.660   0.620  0.6763  1.0554 -0.7555
 2525SOL    HW210099   1.281   2.780   0.614  0.4498  0.8745 -0.9240
 2525SOL     MW10100   1.347   2.737   0.652  0.2974  0.8844 -0.6459
 2526SOL     OW10101   2.473   3.542   2.737  0.8439  0.7896  0.0759
 2526SOL    HW110102   2.483   3.551   2.832  1.0811 -0.8671  0.2473
 2526SOL    HW210103   2.384   3.508   2.726  0.9867  0.5175 -0.2476
 2526SOL     MW10104   2.463   3.539   2.748  0.8925  0.5427  0.0564
 2527SOL     OW10105   0.013   2.833   0.608  0.5612  0.1608 -1.0053
 2527SOL    HW110106  -0.024   2.745   0.607 -0.0312  0.3818 -0.1090
 2527SOL    HW210107   0.107   2.819   0.607  0.4704 -0.4602 -1.6417
 2527SOL     MW10108   0.020   2.820   0.608  0.4737  0.1096 -0.9720
 2528SOL     OW10109   5.224   0.980   5.013  0.2072  0.1574  0.0460
 2528SOL    HW110110   5.157   0.955   5.076 -1.6170 -0.5827 -2.0611
 2528SOL    HW210111   5.303   0.932   5.040 -0.8341 -1.0158  1.0888
 2528SOL     MW10112   5.226   0.971   5.024 -0.1596 -0.0875 -0.0902
 2529SOL     OW10113   4.202   0.939   2.273 -0.3802  0.3755 -0.3918
 2529SOL    HW110114   4.169   1.029   2.265 -0.0868  0.4954 -0.2820
 2529SOL    HW210115   4.165   0.893   2.198 -0.9993  0.4433 -0.1383
 2529SOL     MW10116   4.193   0.945   2.263 -0.4219  0.3996 -0.3453
 2530SOL     OW10117   0.505   0.213   3.642  0.2859  0.1717  0.1480
 2530SOL    HW110118   0.443   0.147   3.609  2.5879 -1.7029 -0.7611
 2530SOL    HW210119   0.526   0.266   3.565  1.1120 -0.3674 -0.0204
 2530SOL     MW10120   0.500   0.211   3.628  0.6863 -0.1373  0.0101
 2531SOL     OW10121   2.522   3.988   0.363 -0.0791 -0.1337 -0.2625
 2531SOL    HW110122   2.595   3.938   0.327  0.2681 -0.1354  0.4318
 2531SOL    HW210123   2.452   3.924   0.376 -0.4144 -0.0310 -1.4682
 2531SOL     MW10124   2.522   3.974   0.360 -0.0776 -0.1208 -0.3279
 2532SOL     OW10125   1.291   1.792   4.229 -0.0054  0.4534 -0.0762
 2532SOL    HW110126   1.327   1.877   4.253  0.8814  0.4761 -1.3772
 2532SOL    HW210127   1.296   1.740   4.309  0.9208  1.1314  0.3233
 2532SOL     MW10128   1.296   1.796   4.242  0.2267  0.5431 -0.1916
 2533SOL     OW10129   0.929   3.046   0.867  0.6564  0.7541 -0.2886
 2533SOL    HW110130   1.015   3.087   0.875  0.7490  0.9215 -1.7875
 2533SOL    HW210131   0.941   2.958   0.902  1.8065  0.3309 -1.6419
 2533SOL     MW10132   0.942   3.040   0.873  0.8155  0.7214 -0.6537
 2534SOL     OW10133   2.848   1.349   4.607  0.2822 -0.4639  0.0006
 2534SOL    HW110134   2.859   1.413   4.677  0.7715 -0.8113  0.2494
 2534SOL    HW210135   2.829   1.401   4.529  1.3061  0.0383  0.0610
 2534SOL     MW10136   2.847   1.364   4.606  0.4759 -0.4441  0.0402
 2535SOL     OW10137   3.055   2.944   1.697  0.2714 -0.2113 -0.2527
 2535SOL    HW110138   3.113   3.017   1.716 -0.9839  0.4456  1.3780
 2535SOL    HW210139   2.969   2.973   1.728 -0.2666 -2.3757  0.5181
 2535SOL     MW10140   3.051   2.957   1.703  0.0418 -0.4043  0.0547
 2536SOL     OW10141   1.526   2.159   0.602  0.4105  1.2317 -0.2425
 2536SOL    HW110142   1.521   2.066   0.623  0.0179  1.6351  1.6285
 2536SOL    HW210143   1.589   2.165   0.531 -0.2927 -0.5556 -1.0572
 2536SOL     MW10144   1.534   2.148   0.596  0.2702  1.0546 -0.1072
 2537SOL     OW10145   0.373   3.591   0.922 -0.0772 -0.7464  0.4559
 2537SOL    HW110146   0.322   3.588   1.003  0.7251 -2.6951  0.9603
 2537SOL    HW210147   0.370   3.501   0.888  0.9431 -0.3366 -0.8117
 2537SOL     MW10148   0.366   3.579   0.928  0.1561 -0.9434  0.3582
 2538SOL     OW10149   1.038   4.667   0.321 -0.5239  0.6800 -0.0381
 2538SOL    HW110150   0.972   4.627   0.264 -0.5940  1.0894 -0.2455
 2538SOL    HW210151   1.120   4.662   0.272 -0.0382 -1.3592  0.8952
 2538SOL     MW10152   1.040   4.661   0.308 -0.4707  0.4713  0.0548
 2539SOL     OW10153   3.768   0.553   0.535 -0.4459 -0.0988 -0.0323
 2539SOL    HW110154   3.735   0.470   0.502  0.1363 -1.1093  1.7694
 2539SOL    HW210155   3.711   0.573   0.610  1.0420 -0.2908  1.2015
 2539SOL     MW10156   3.757   0.545   0.541 -0.1809 -0.2527  0.3563
 2540SOL     OW10157   1.213   2.551   3.464  0.8897 -0.4057  0.0385
 2540SOL    HW110158   1.202   2.499   3.384  1.1767 -0.9150  0.3230
 2540SOL    HW210159   1.256   2.492   3.525  1.3375  0.2085  0.3323
 2540SOL     MW10160   1.217   2.537   3.462  0.9837 -0.3923  0.1125
 2541SOL     OW10161   3.460   0.870   3.906  0.1426 -0.7923  0.4104
 2541SOL    HW110162   3.519   0.829   3.842 -0.3990  1.4866 -1.7062
 2541SOL    HW210163   3.417   0.797   3.949  2.1324 -2.4671 -0.2747
 2541SOL     MW10164   3.462   0.856   3.903  0.3280 -0.7149  0.0517
 2542SOL     OW10165   3.975   3.396   0.484  0.5064  1.1236 -0.4432
 2542SOL    HW110166   3.968   3.307   0.449  2.7051  0.7379  0.0063
 2542SOL    HW210167   4.048   3.435   0.437  0.4921  2.2085  0.3911
 2542SOL     MW10168   3.983   3.389   0.474  0.7861  1.2131 -0.2789
 2543SOL     OW10169   0.094   5.276   2.653 -0.5352  0.0969 -0.4239
 2543SOL    HW110170   0.167   5.319   2.697 -0.8513 -0.1709  0.3914
 2543SOL    HW210171   0.116   5.183   2.653 -0.4046  0.1253 -1.1029
 2543SOL     MW10172   0.106   5.270   2.659 -0.5589  0.0663 -0.4064
 2544SOL     OW10173   3.351   3.724   3.172  0.0760  1.0138  0.2804
 2544SOL    HW110174   3.339   3.662   3.244  3.1404  1.1988  1.0919
 2544SOL    HW210175   3.428   3.692   3.125  0.1839  2.7792 -0.8458
 2544SOL     MW10176   3.360   3.712   3.175  0.4821  1.2634  0.2401
 2545SOL     OW10177   3.820   1.365   3.869  0.4922 -0.0752 -0.3626
 2545SOL    HW110178   3.758   1.431   3.901  0.0674 -0.2847 -0.7325
 2545SOL    HW210179   3.904   1.389   3.907 -0.1067 -0.6525  1.3856
 2545SOL     MW10180   3.822   1.376   3.878  0.3611 -0.1759 -0.1861
 2546SOL     OW10181   3.034   1.080   2.643 -0.0495  0.8095 -0.4819
 2546SOL    HW110182   3.111   1.031   2.673 -0.9008  0.3968  1.1978
 2546SOL    HW210183   3.041   1.081   2.548  1.0428 -0.8595 -0.4670
 2546SOL     MW10184   3.045   1.074   2.635 -0.0187  0.5430 -0.2650
 2547SOL     OW10185   4.555   2.471   2.535 -0.9204  0.3726  0.5033
 2547SOL    HW110186   4.473   2.436   2.499 -0.4629 -1.7161  1.3488
 2547SOL    HW210187   4.529   2.512   2.617 -1.2336  0.5373  0.3275
 2547SOL     MW10188   4.541   2.471   2.541 -0.9019  0.1263  0.5891
 2548SOL     OW10189   0.210   2.752   4.855 -0.5991  0.1094 -0.3884
 2548SOL    HW110190   0.183   2.784   4.941 -2.4403  2.2507 -1.6309
 2548SOL    HW210191   0.201   2.657   4.860 -1.6168  0.2683  1.4806
 2548SOL     MW10192   0.205   2.744   4.866 -0.9651  0.4039 -0.3082
 2549SOL     OW10193   2.674   5.422   1.486 -0.4937 -0.5071 -0.2392
 2549SOL    HW110194   2.753   5.458   1.445 -0.4769  0.1124  0.3157
 2549SOL    HW210195   2.622   5.499   1.509  0.9850 -0.5193  3.9341
 2549SOL     MW10196   2.677   5.437   1.484 -0.3023 -0.4294  0.3661
 2550SOL     OW10197   5.175   0.739   3.825  0.0032  0.1721 -0.1805
 2550SOL    HW110198   5.091   0.775   3.853 -0.0078 -0.2306  0.3051
 2550SOL    HW210199   5.201   0.795   3.751 -0.2712  0.8347  0.2162
 2550SOL     MW10200   5.167   0.751   3.819 -0.0333  0.2053 -0.0676
 2551SOL     OW10201   2.464   4.783   0.069 -0.0174  0.1230  0.5188
 2551SOL    HW110202   2.433   4.777  -0.021  1.3422 -0.2610  0.0501
 2551SOL    HW210203   2.384   4.794   0.121 -0.9787 -1.1561 -0.5855
 2551SOL     MW10204   2.450   4.783   0.064  0.0336 -0.0899  0.3174
 2552SOL     OW10205   4.901   3.850   0.747  0.2951  0.0236 -0.0508
 2552SOL    HW110206   4.901   3.844   0.651  0.7183  1.1527 -0.1428
 2552SOL    HW210207   4.943   3.769   0.776  0.5210 -0.1540 -0.8351
 2552SOL     MW10208   4.906   3.839   0.738  0.3782  0.1454 -0.1630
 2553SOL     OW10209   4.960   3.013   4.511  0.2952 -0.2381 -0.4410
 2553SOL    HW110210   5.031   3.077   4.521 -0.8636  1.0123  0.1307
 2553SOL    HW210211   4.984   2.941   4.569  1.1387  0.1263 -0.3217
 2553SOL     MW10212   4.972   3.012   4.520  0.2548 -0.0314 -0.3525
 2554SOL     OW10213   0.215   1.397   4.078 -0.1476 -0.2482 -0.0969
 2554SOL    HW110214   0.217   1.405   3.983  0.0415  0.9189 -0.0192
 2554SOL    HW210215   0.291   1.343   4.100 -0.6721 -1.2301 -0.6484
 2554SOL     MW10216   0.225   1.391   4.069 -0.1905 -0.2245 -0.1575
 2555SOL     OW10217   4.610   3.871   2.937  0.3758 -0.0796 -0.1811
 2555SOL    HW110218   4.532   3.877   2.883 -1.1326 -1.2312  1.7308
 2555SOL    HW210219   4.578   3.874   3.027  2.8159  2.3744  0.7686
 2555SOL     MW10220   4.596   3.872   2.942  0.4950  0.0871  0.1852
 2556SOL     OW10221   3.769   3.928   2.929  0.0073 -0.3534 -0.1987
 2556SOL    HW110222   3.691   3.880   2.956  0.1441  0.4331  1.7768
 2556SOL    HW210223   3.736   4.014   2.901  0.0288 -0.6260 -1.1180
 2556SOL     MW10224   3.755   3.933   2.929  0.0275 -0.2876 -0.0635
 2557SOL     OW10225   4.446   2.687   4.392 -0.0400 -0.3394  0.0847
 2557SOL    HW110226   4.496   2.625   4.446  0.9360  0.2866 -0.0672
 2557SOL    HW210227   4.484   2.678   4.304  0.4100  0.7623  0.1493
 2557SOL     MW10228   4.457   2.678   4.388  0.1426 -0.1182  0.0735
 2558SOL     OW10229   4.874   0.359   5.100 -0.0556  0.1458 -0.5321
 2558SOL    HW110230   4.787   0.327   5.123 -0.9951  1.1269 -2.4343
 2558SOL    HW210231   4.893   0.318   5.016  1.9784 -1.1379  0.4948
 2558SOL     MW10232   4.865   0.350   5.092  0.0845  0.1071 -0.6441
 2559SOL     OW10233   2.209   4.856   0.644 -0.3056 -0.5545  0.0892
 2559SOL    HW110234   2.120   4.869   0.611 -0.5588 -0.8657  0.6475
 2559SOL    HW210235   2.205   4.774   0.693  0.0861 -0.1326  0.8373
 2559SOL     MW10236   2.197   4.847   0.646 -0.2879 -0.5404  0.2564
 2560SOL     OW10237   4.319   0.202   2.633 -0.0511  0.3856 -0.1231
 2560SOL    HW110238   4.381   0.258   2.587 -0.3029  2.0805  1.4976
 2560SOL    HW210239   4.366   0.120   2.647  1.0130  0.8533 -0.9012
 2560SOL     MW10240   4.333   0.198   2.629  0.0529  0.6624 -0.0153
 2561SOL     OW10241   3.519   2.588   5.154  0.0057  0.0133  0.0715
 2561SOL    HW110242   3.609   2.576   5.123  0.9150 -0.8328  2.7365
 2561SOL    HW210243   3.528   2.644   5.231 -2.0632  1.8166 -0.8841
 2561SOL     MW10244   3.532   2.594   5.160 -0.1427  0.1359  0.2903
 2562SOL     OW10245   4.516   3.884   0.027 -0.1747  0.0214  0.1364
 2562SOL    HW110246   4.490   3.976   0.034 -0.0292 -0.0604  2.5570
 2562SOL    HW210247   4.435   3.838   0.005 -0.3642  0.6669 -0.5281
 2562SOL     MW10248   4.502   3.890   0.025 -0.1804  0.0936  0.3612
 2563SOL     OW10249   3.768   2.064   2.502  0.1630  0.1957 -0.3894
 2563SOL    HW110250   3.753   2.016   2.421  0.5715 -0.2761 -0.1914
 2563SOL    HW210251   3.779   1.996   2.569  2.1194  0.5037 -0.3447
 2563SOL     MW10252   3.767   2.049   2.501  0.4657  0.1748 -0.3583
 2564SOL     OW10253   0.149   4.944   2.087 -0.3846  0.0749 -0.3433
 2564SOL    HW110254   0.242   4.965   2.097 -0.4384  0.6351 -0.9249
 2564SOL    HW210255   0.133   4.953   1.993 -0.9777 -0.2408 -0.2765
 2564SOL     MW10256   0.159   4.948   2.076 -0.4674  0.1062 -0.4092
 2565SOL     OW10257   3.526   3.222   1.743 -0.3026 -0.4127 -0.1473
 2565SOL    HW110258   3.526   3.254   1.833 -1.0448 -1.3234  0.1907
 2565SOL    HW210259   3.617   3.200   1.726  0.0779  0.9975 -0.0878
 2565SOL     MW10260   3.538   3.223   1.752 -0.3489 -0.3487 -0.0964
 2566SOL     OW10261   1.752   0.142   3.761 -0.4617  0.4325 -0.6070
 2566SOL    HW110262   1.685   0.210   3.756 -0.1028  0.9640  1.1966
 2566SOL    HW210263   1.702   0.061   3.771 -0.8693  0.8502  0.9778
 2566SOL     MW10264   1.737   0.140   3.761 -0.4679  0.5540 -0.1732
 2567SOL     OW10265   1.872   5.014   4.232 -0.1959  0.2629  0.3485
 2567SOL    HW110266   1.818   4.955   4.179 -0.4324  1.1289 -0.3968
 2567SOL    HW210267   1.824   5.020   4.315  1.1530 -2.6207  1.4810
 2567SOL     MW10268   1.859   5.007   4.236 -0.0535  0.0047  0.3980
 2568SOL     OW10269   1.698   3.726   2.133  0.6795 -0.0889  0.4615
 2568SOL    HW110270   1.616   3.748   2.089  0.4140  0.2023  1.0987
 2568SOL    HW210271   1.714   3.798   2.194  1.9699  0.4063 -0.3929
 2568SOL     MW10272   1.690   3.738   2.135  0.8107  0.0118  0.4337
 2569SOL     OW10273   4.347   2.235   5.038  0.3787  0.1289 -0.3373
 2569SOL    HW110274   4.399   2.191   4.971  3.3542  1.5134  0.8385
 2569SOL    HW210275   4.375   2.193   5.120  1.3046  2.2977  0.5317
 2569SOL     MW10276   4.357   2.224   5.040  0.8781  0.5837 -0.0755
 2570SOL     OW10277   1.759   0.293   4.405  0.1359  0.7155  0.0787
 2570SOL    HW110278   1.679   0.326   4.444 -0.6737 -1.0130 -0.0048
 2570SOL    HW210279   1.806   0.371   4.375 -0.8909  1.8362  1.2824
 2570SOL     MW10280   1.755   0.307   4.406 -0.0992  0.6377  0.2221
 2571SOL     OW10281   5.199   5.294   0.069  0.0865 -0.1211 -0.3310
 2571SOL    HW110282   5.189   5.387   0.050 -0.5889 -0.5214 -2.0956
 2571SOL    HW210283   5.278   5.289   0.123 -1.3537  1.7164  2.1307
 2571SOL     MW10284   5.208   5.305   0.074 -0.1843  0.0629 -0.2418
 2572SOL     OW10285   0.798   4.294   5.340  0.1399  0.0918 -0.4097
 2572SOL    HW110286   0.882   4.336   5.359  0.9449 -0.7015 -2.0318
 2572SOL    HW210287   0.736   4.367   5.331  1.0195  0.7970 -0.9181
 2572SOL     MW10288   0.801   4.309   5.341  0.3555  0.0806 -0.6824
 2573SOL     OW10289   4.538   5.369   0.634 -0.4487 -0.1020 -0.1467
 2573SOL    HW110290   4.496   5.441   0.680 -0.0148 -0.2305  0.4627
 2573SOL    HW210291   4.506   5.376   0.544 -1.5144 -0.0039  0.2224
 2573SOL     MW10292   4.528   5.379   0.629 -0.5296 -0.1059 -0.0215
 2574SOL     OW10293   5.292   2.130   3.276  0.5307  0.0871  0.3071
 2574SOL    HW110294   5.370   2.098   3.321  0.2525 -1.6125 -0.3654
 2574SOL    HW210295   5.244   2.051   3.251 -0.4365  1.0475 -1.0226
 2574SOL     MW10296   5.296   2.116   3.279  0.3712 -0.0075  0.0508
 2575SOL     OW10297   4.370   0.694   1.258 -0.8906  0.1416 -0.3860
 2575SOL    HW110298   4.288   0.669   1.215 -0.4264 -0.1332 -1.1203
 2575SOL    HW210299   4.431   0.712   1.186 -1.1741  3.4450  0.0251
 2575SOL     MW10300   4.367   0.693   1.243 -0.8675  0.5293 -0.4274
 2576SOL     OW10301   0.788   0.723   5.230  0.3494 -0.4646 -0.1807
 2576SOL    HW110302   0.859   0.770   5.274  1.0618 -0.6799 -1.0868
 2576SOL    HW210303   0.778   0.642   5.281  1.4757 -0.9213 -0.6529
 2576SOL     MW10304   0.796   0.718   5.242  0.5848 -0.5507 -0.3571
 2577SOL     OW10305   3.799   3.237   1.727  0.1173  0.2190  0.6363
 2577SOL    HW110306   3.880   3.198   1.759 -0.6667  0.4470  3.1382
 2577SOL    HW210307   3.808   3.330   1.748 -0.7910  0.2406  0.9774
 2577SOL     MW10308   3.810   3.244   1.734 -0.0993  0.2509  1.0002
 2578SOL     OW10309   1.959   0.177   4.584 -0.1240  0.6609  0.1177
 2578SOL    HW110310   1.886   0.218   4.538  0.8482 -0.0420 -2.1965
 2578SOL    HW210311   2.026   0.165   4.517  1.0103 -1.3650  1.5047
 2578SOL     MW10312   1.958   0.180   4.570  0.1456  0.3116 -0.0010
 2579SOL     OW10313   5.311   3.733   2.096  0.0952 -0.6901 -0.4903
 2579SOL    HW110314   5.293   3.757   2.005 -1.4829 -0.1294 -0.0759
 2579SOL    HW210315   5.290   3.812   2.147 -0.8191 -1.5203  0.4974
 2579SOL     MW10316   5.306   3.746   2.091 -0.2238 -0.7246 -0.3108
 2580SOL     OW10317   0.356   2.872   4.643  0.2055 -0.3465  0.4378
 2580SOL    HW110318   0.302   2.827   4.578 -0.3784  0.9295 -0.0140
 2580SOL    HW210319   0.333   2.831   4.726 -0.9460 -0.3223  0.1591
 2580SOL     MW10320   0.346   2.861   4.645 -0.0167 -0.1801  0.3443
 2581SOL     OW10321   2.866   2.221   2.747 -0.1524 -0.4505  0.1716
 2581SOL    HW110322   2.826   2.276   2.814  0.3282 -0.3182  0.3543
 2581SOL    HW210323   2.910   2.151   2.796 -0.0168 -0.5003 -0.0210
 2581SOL     MW10324   2.866   2.219   2.762 -0.0736 -0.4400  0.1704
 2582SOL     OW10325   5.318   3.530   5.399 -0.0671  0.2786 -0.4713
 2582SOL    HW110326   5.339   3.526   5.493  1.2234  2.7133 -0.5852
 2582SOL    HW210327   5.224   3.541   5.395  0.0073  1.4472  0.6123
 2582SOL     MW10328   5.309   3.531   5.411  0.1077  0.7399 -0.3472
 2583SOL     OW10329   5.361   4.609   1.496  0.3341 -0.4499  0.1746
 2583SOL    HW110330   5.329   4.619   1.407  0.2533  0.1440  0.2649
 2583SOL    HW210331   5.285   4.580   1.546  0.5049 -1.3035 -0.0409
 2583SOL     MW10332   5.347   4.607   1.491  0.3456 -0.4831  0.1586
 2584SOL     OW10333   5.344   2.404   3.696  0.5446 -0.0903  0.0973
 2584SOL    HW110334   5.411   2.463   3.661 -0.2079  1.3781  1.0362
 2584SOL    HW210335   5.266   2.459   3.704 -0.4006 -1.4253  0.2706
 2584SOL     MW10336   5.343   2.419   3.693  0.3273 -0.0732  0.2397
 2585SOL     OW10337   5.271   4.638   2.751  0.0102  0.1936  0.1980
 2585SOL    HW110338   5.315   4.643   2.836  0.1376  0.1260  0.1360
 2585SOL    HW210339   5.178   4.629   2.772  0.0968 -0.3980  0.3337
 2585SOL     MW10340   5.265   4.638   2.764  0.0376  0.1092  0.2075
 2586SOL     OW10341   2.814   2.996   2.643  0.4716  0.0987  0.2593
 2586SOL    HW110342   2.903   3.024   2.663 -0.3061  1.3851  2.0947
 2586SOL    HW210343   2.782   3.061   2.580  0.5098  0.1724  0.3161
 2586SOL     MW10344   2.821   3.008   2.637  0.3770  0.2729  0.5015
 2587SOL     OW10345   3.748   3.577   0.350 -0.2496 -0.5283  0.4938
 2587SOL    HW110346   3.654   3.582   0.364 -0.4291  2.2790 -0.9097
 2587SOL    HW210347   3.785   3.566   0.438 -1.8383 -1.8909  1.0419
 2587SOL     MW10348   3.741   3.576   0.363 -0.4760 -0.3433  0.3843
 2588SOL     OW10349   2.892   1.961   1.139  0.0324 -0.0371 -0.3576
 2588SOL    HW110350   2.877   2.055   1.147  1.2399  0.1796 -0.3635
 2588SOL    HW210351   2.957   1.953   1.068 -0.3191 -0.8987 -0.5975
 2588SOL     MW10352   2.899   1.972   1.131  0.1420 -0.1196 -0.3890
 2589SOL     OW10353   4.556   4.259   4.455 -0.7359  0.1033  0.0426
 2589SOL    HW110354   4.550   4.164   4.457 -3.1689  0.1900  0.6237
 2589SOL    HW210355   4.628   4.280   4.513 -1.6604 -1.3438  1.8031
 2589SOL     MW10356   4.564   4.250   4.462 -1.1657 -0.0708  0.3424
 2590SOL     OW10357   0.947   0.862   1.067  0.0913 -0.1180 -0.3453
 2590SOL    HW110358   0.932   0.767   1.064  2.1550 -0.4698 -1.9105
 2590SOL    HW210359   0.861   0.900   1.052 -0.6877 -1.7592 -0.2643
 2590SOL     MW10360   0.934   0.854   1.065  0.2557 -0.3731 -0.5353
 2591SOL     OW10361   4.551   2.334   4.696 -0.4674 -0.1901 -0.4886
 2591SOL    HW110362   4.455   2.332   4.704 -0.4364 -2.4094 -0.1365
 2591SOL    HW210363   4.582   2.348   4.785 -0.4300  1.0790 -0.6763
 2591SOL     MW10364   4.542   2.335   4.708 -0.4587 -0.3117 -0.4676
 2592SOL     OW10365   2.526   1.297   1.201  0.1091 -0.3212  0.2883
 2592SOL    HW110366   2.567   1.228   1.253 -0.4717 -1.8863 -1.2087
 2592SOL    HW210367   2.442   1.314   1.243 -0.1998 -1.3063  0.0826
 2592SOL     MW10368   2.521   1.291   1.213 -0.0048 -0.6476  0.0704
 2593SOL     OW10369   2.882   2.027   3.087 -0.1112  0.1244 -0.5892
 2593SOL    HW110370   2.908   1.999   2.999  1.1345 -1.4405  0.2251
 2593SOL    HW210371   2.925   1.964   3.146 -1.5355  0.6690  1.1098
 2593SOL     MW10372   2.891   2.015   3.083 -0.1340 -0.0062 -0.2675
 2594SOL     OW10373   3.365   4.978   1.405  0.2434  0.3166 -0.0977
 2594SOL    HW110374   3.374   4.929   1.324 -0.1671 -0.0982  0.1038
 2594SOL    HW210375   3.428   5.050   1.397  0.4972  0.0417 -0.6029
 2594SOL     MW10376   3.374   4.981   1.394  0.2234  0.2283 -0.1366
 2595SOL     OW10377   3.855   4.181   3.720 -0.5756  0.5017 -0.1388
 2595SOL    HW110378   3.859   4.186   3.624  0.6917  2.7978 -0.0433
 2595SOL    HW210379   3.797   4.252   3.745 -1.9553 -0.8904  0.8051
 2595SOL     MW10380   3.848   4.191   3.711 -0.5900  0.6174 -0.0057
 2596SOL     OW10381   2.337   3.676   0.734 -0.1299  0.1673 -0.2514
 2596SOL    HW110382   2.283   3.729   0.675 -1.7668 -0.8058  0.3037
 2596SOL    HW210383   2.426   3.686   0.700 -0.5410  2.2985 -0.8607
 2596SOL     MW10384   2.341   3.684   0.722 -0.3921  0.3155 -0.2584
 2597SOL     OW10385   3.740   2.193   4.272  0.3566  0.0693 -0.2018
 2597SOL    HW110386   3.694   2.157   4.196  0.9753  0.1063 -0.5981
 2597SOL    HW210387   3.769   2.280   4.243 -0.6909  0.7105  0.5757
 2597SOL     MW10388   3.738   2.200   4.258  0.3017  0.1561 -0.1530
 2598SOL     OW10389   0.117   0.926   3.166 -0.0597 -0.1217 -0.4688
 2598SOL    HW110390   0.198   0.896   3.208 -0.9703  0.1562  1.5969
 2598SOL    HW210391   0.081   0.848   3.125  0.4332 -0.6126  0.0094
 2598SOL     MW10392   0.123   0.913   3.166 -0.1132 -0.1490 -0.1431
 2599SOL     OW10393   2.884   0.369   2.307 -0.9967 -0.0579 -0.0739
 2599SOL    HW110394   2.950   0.325   2.254 -0.2956  0.2386  0.5278
 2599SOL    HW210395   2.801   0.348   2.265 -0.5103 -0.3508 -0.9070
 2599SOL     MW10396   2.882   0.360   2.295 -0.8447 -0.0574 -0.1035
 2600SOL     OW10397   1.822   1.228   1.338  0.5244 -0.1818 -0.2552
 2600SOL    HW110398   1.910   1.262   1.322  0.5808 -0.5482 -0.7424
 2600SOL    HW210399   1.776   1.300   1.380  0.9332  0.1572 -0.3812
 2600SOL     MW10400   1.827   1.241   1.341  0.5840 -0.1853 -0.3337
 2601SOL     OW10401   0.824   0.241   4.370  0.0581 -0.1042  0.0734
 2601SOL    HW110402   0.767   0.231   4.445 -1.4994 -1.6338 -1.2249
 2601SOL    HW210403   0.912   0.224   4.404 -0.7994 -2.7875  1.2099
 2601SOL     MW10404   0.828   0.238   4.384 -0.2510 -0.6435  0.0527
 2602SOL     OW10405   4.773   3.013   5.244 -0.1837 -0.4079 -0.0848
 2602SOL    HW110406   4.713   2.938   5.239  0.3420 -0.7595 -2.9654
 2602SOL    HW210407   4.718   3.089   5.224  0.1124 -0.6357 -1.9076
 2602SOL     MW10408   4.758   3.013   5.241 -0.0785 -0.4821 -0.6869
 2603SOL     OW10409   1.491   4.321   0.405  0.1921  0.1631 -0.4841
 2603SOL    HW110410   1.551   4.252   0.432  0.3904  0.0123 -1.2804
 2603SOL    HW210411   1.546   4.399   0.399 -0.1780  0.5869  1.1651
 2603SOL     MW10412   1.506   4.322   0.407  0.1701  0.1980 -0.3749
 2604SOL     OW10413   3.462   1.462   3.366 -0.2690  0.5362  0.3770
 2604SOL    HW110414   3.396   1.527   3.387 -2.8352 -1.7635  0.0612
 2604SOL    HW210415   3.515   1.455   3.446 -2.2077  0.5278  1.7368
 2604SOL     MW10416   3.460   1.469   3.379 -0.8457  0.2407  0.5107
 2605SOL     OW10417   0.484   4.114   1.171 -0.1993 -0.0452 -0.4772
 2605SOL    HW110418   0.439   4.042   1.216  0.0888 -0.2144 -0.4602
 2605SOL    HW210419   0.420   4.144   1.106  0.0707 -1.0313 -1.2197
 2605SOL     MW10420   0.470   4.108   1.168 -0.1279 -0.1931 -0.5701
 2606SOL     OW10421   1.404   5.304   5.381  0.3303  0.2223 -0.2635
 2606SOL    HW110422   1.322   5.315   5.429 -0.4274 -1.0623 -1.1851
 2606SOL    HW210423   1.377   5.270   5.295  1.8810 -1.0758 -0.2780
 2606SOL     MW10424   1.390   5.301   5.376  0.4318 -0.1083 -0.3833
 2607SOL     OW10425   3.225   3.232   1.463 -0.1206 -0.5573 -0.0465
 2607SOL    HW110426   3.225   3.214   1.557 -1.0235 -0.8220 -0.0869
 2607SOL    HW210427   3.158   3.299   1.451 -1.8424 -2.3185 -0.7968
 2607SOL     MW10428   3.216   3.238   1.474 -0.4566 -0.8167 -0.1477
 2608SOL     OW10429   1.965   3.602   3.280 -0.2288  0.1727 -0.2525
 2608SOL    HW110430   1.958   3.623   3.186  0.0558 -0.0607 -0.3265
 2608SOL    HW210431   2.030   3.533   3.284 -0.0319  0.3813  0.1505
 2608SOL     MW10432   1.972   3.596   3.268 -0.1671  0.1695 -0.2104
 2609SOL     OW10433   1.038   3.759   4.186 -0.2221  0.2768 -0.3948
 2609SOL    HW110434   0.964   3.816   4.164 -0.1510  1.7169  2.5084
 2609SOL    HW210435   1.096   3.815   4.238  1.5068 -1.5880 -0.2087
 2609SOL     MW10436   1.036   3.774   4.190  0.0083  0.2224  0.0007
 2610SOL     OW10437   1.531   2.069   0.207 -0.4907 -0.0169  0.5577
 2610SOL    HW110438   1.565   2.049   0.119  0.3638  2.5137  0.2326
 2610SOL    HW210439   1.604   2.112   0.251 -1.4425  0.2095  1.9691
 2610SOL     MW10440   1.545   2.072   0.201 -0.5032  0.3360  0.6968
 2611SOL     OW10441   2.859   4.587   0.109  0.5159  0.2723  0.5481
 2611SOL    HW110442   2.775   4.590   0.156  0.3095 -0.9125  0.2716
 2611SOL    HW210443   2.842   4.634   0.027 -0.2775 -1.0765 -0.0910
 2611SOL     MW10444   2.846   4.594   0.105  0.3879 -0.0521  0.4309
 2612SOL     OW10445   4.246   4.412   1.730 -0.7645  0.1973  0.5992
 2612SOL    HW110446   4.328   4.386   1.771 -0.1954 -1.1285 -1.2228
 2612SOL    HW210447   4.266   4.493   1.684 -0.5366  0.0375  0.4108
 2612SOL     MW10448   4.259   4.419   1.729 -0.6624  0.0071  0.3418
 2613SOL     OW10449   3.136   5.218   3.049 -0.4247 -0.3427 -1.0073
 2613SOL    HW110450   3.051   5.261   3.050 -1.1547 -1.7209 -0.8678
 2613SOL    HW210451   3.193   5.278   3.097 -1.9265 -0.5260  1.1628
 2613SOL     MW10452   3.132   5.231   3.056 -0.7104 -0.5426 -0.7117
 2614SOL     OW10453   4.796   1.359   1.529  0.2247  0.5130  0.0003
 2614SOL    HW110454   4.815   1.290   1.466 -0.4486 -0.3684  0.7333
 2614SOL    HW210455   4.867   1.354   1.593  0.6530  1.0952 -0.4208
 2614SOL     MW10456   4.808   1.350   1.529  0.1934  0.4747  0.0402
 2615SOL     OW10457   3.245   1.171   4.921  0.3171 -0.6306  0.3809
 2615SOL    HW110458   3.334   1.142   4.942  1.4821  0.3108 -2.6156
 2615SOL    HW210459   3.196   1.090   4.907  1.7533 -1.2744 -1.4454
 2615SOL     MW10460   3.250   1.157   4.922  0.6501 -0.5925 -0.2365
 2616SOL     OW10461   1.896   0.003   4.795 -0.0828 -0.1685  0.1812
 2616SOL    HW110462   1.929   0.069   4.734 -0.6410  0.1557  0.2265
 2616SOL    HW210463   1.975  -0.041   4.827  0.5139  2.0007  1.9277
 2616SOL     MW10464   1.910   0.006   4.791 -0.0778  0.1507  0.4105
 2617SOL     OW10465   4.579   3.794   0.483  0.4929 -0.2617 -0.9918
 2617SOL    HW110466   4.558   3.871   0.536 -0.1458 -1.3948  0.4581
 2617SOL    HW210467   4.668   3.810   0.452  0.1266  1.3700 -1.3058
 2617SOL     MW10468   4.588   3.806   0.486  0.3643 -0.1979 -0.8464
 2618SOL     OW10469   5.003   4.331   3.125  0.1099  0.0409  0.5633
 2618SOL    HW110470   4.939   4.260   3.121 -0.7487  0.7329  1.4587
 2618SOL    HW210471   5.014   4.349   3.218  0.3550  1.0442  0.3526
 2618SOL     MW10472   4.996   4.324   3.136  0.0314  0.2579  0.6509
 2619SOL     OW10473   1.253   0.217   2.916 -0.1467  0.5471 -0.2275
 2619SOL    HW110474   1.186   0.286   2.912 -0.3588  0.4965  1.5499
 2619SOL    HW210475   1.203   0.135   2.914 -0.0054  0.4748 -0.7724
 2619SOL     MW10476   1.238   0.215   2.916 -0.1558  0.5313 -0.0697
 2620SOL     OW10477   0.072   5.462   3.180  0.0013 -0.0893  1.0680
 2620SOL    HW110478   0.127   5.537   3.159 -1.7794  0.8353 -0.7461
 2620SOL    HW210479   0.071   5.409   3.100 -2.3428  0.3853  0.6988
 2620SOL     MW10480   0.079   5.464   3.167 -0.5267  0.0898  0.7885
 2621SOL     OW10481   0.119   1.915   4.078  0.1321 -0.5967  0.5603
 2621SOL    HW110482   0.025   1.908   4.058  0.3693  0.1525 -0.9978
 2621SOL    HW210483   0.149   1.825   4.082 -0.6732 -0.8491  1.1565
 2621SOL     MW10484   0.111   1.903   4.076  0.0594 -0.5331  0.4371
 2622SOL     OW10485   3.653   4.055   3.884  0.6821 -0.1216  0.3368
 2622SOL    HW110486   3.647   3.961   3.870  0.7290  0.0618 -1.0605
 2622SOL    HW210487   3.629   4.093   3.799 -0.1364  1.1463  1.1095
 2622SOL     MW10488   3.649   4.048   3.871  0.5833  0.0642  0.2568
 2623SOL     OW10489   2.366   3.436   3.414 -0.1493 -0.1208  0.0049
 2623SOL    HW110490   2.322   3.512   3.374  1.1239  0.4884 -0.3005
 2623SOL    HW210491   2.416   3.474   3.487 -0.8076 -0.9298  0.9035
 2623SOL     MW10492   2.366   3.451   3.418 -0.0706 -0.1464  0.0808
 2624SOL     OW10493   1.064   0.659   3.833 -0.2203  0.3396 -0.1948
 2624SOL    HW110494   1.119   0.649   3.911  0.3153  0.4928 -0.5452
 2624SOL    HW210495   1.125   0.653   3.760 -0.9165 -1.4753 -0.6943
 2624SOL     MW10496   1.079   0.657   3.833 -0.2408  0.1269 -0.3036
 2625SOL     OW10497   1.886   5.200   0.268 -0.5614  0.0664  0.2593
 2625SOL    HW110498   1.837   5.281   0.256 -0.2419  0.3902  1.0712
 2625SOL    HW210499   1.976   5.223   0.247 -0.2355  0.2866  1.7351
 2625SOL     MW10500   1.891   5.213   0.264 -0.4788  0.1361  0.5522
 2626SOL     OW10501   2.539   2.039   0.939 -0.7839  0.5016 -0.2401
 2626SOL    HW110502   2.452   2.076   0.922 -1.0987 -0.2844 -0.4051
 2626SOL    HW210503   2.538   2.020   1.033 -0.7524  0.6054 -0.2196
 2626SOL     MW10504   2.527   2.041   0.949 -0.8201  0.4143 -0.2586
 2627SOL     OW10505   3.143   4.260   3.143 -0.1849 -0.0197  0.5853
 2627SOL    HW110506   3.149   4.185   3.085 -0.2808 -1.1904  2.0238
 2627SOL    HW210507   3.224   4.309   3.128 -1.0530  0.7969 -1.8918
 2627SOL     MW10508   3.154   4.257   3.134 -0.3083 -0.0651  0.4523
 2628SOL     OW10509   4.506   5.035   2.893  0.3677 -0.3973 -0.2079
 2628SOL    HW110510   4.589   5.049   2.938  0.2890  1.2426 -0.5010
 2628SOL    HW210511   4.531   5.023   2.801  0.3718 -1.5315 -0.0739
 2628SOL     MW10512   4.520   5.035   2.887  0.3582 -0.3326 -0.2283
 2629SOL     OW10513   3.898   3.998   3.986  0.1651  0.0309  0.4982
 2629SOL    HW110514   3.888   3.915   4.033 -0.3124 -1.5599 -2.2040
 2629SOL    HW210515   3.812   4.013   3.946  1.0610  0.1474 -1.5240
 2629SOL     MW10516   3.886   3.989   3.987  0.2187 -0.1579 -0.1066
 2630SOL     OW10517   2.679   4.303   1.051  0.1490 -0.2938  0.1670
 2630SOL    HW110518   2.663   4.216   1.087  1.7423 -0.3164  0.8911
 2630SOL    HW210519   2.624   4.361   1.102  0.0871 -0.7138  0.5802
 2630SOL     MW10520   2.670   4.299   1.062  0.3450 -0.3504  0.3126
 2631SOL     OW10521   0.171   3.785   3.759 -0.7574 -0.0578 -0.5392
 2631SOL    HW110522   0.253   3.833   3.771 -0.8744 -0.0163  0.0835
 2631SOL    HW210523   0.198   3.696   3.736 -0.5402 -0.0302 -0.3912
 2631SOL     MW10524   0.185   3.780   3.757 -0.7446 -0.0490 -0.4405
 2632SOL     OW10525   0.073   1.763   5.229 -0.3717  0.5878 -0.2138
 2632SOL    HW110526   0.102   1.795   5.144 -1.2251  1.9153 -0.0471
 2632SOL    HW210527   0.026   1.837   5.267  1.3685  0.6149  2.1162
 2632SOL     MW10528   0.071   1.777   5.223 -0.2581  0.7612  0.1058
 2633SOL     OW10529   1.009   4.004   3.877 -0.1992 -0.3309 -0.2674
 2633SOL    HW110530   1.078   3.971   3.820  0.8444 -0.0756  0.8104
 2633SOL    HW210531   0.936   3.943   3.865 -0.6820  0.6386 -3.1282
 2633SOL     MW10532   1.008   3.992   3.868 -0.1274 -0.1741 -0.4956
 2634SOL     OW10533   3.672   4.912   2.212  0.2466  0.1062  0.8514
 2634SOL    HW110534   3.643   4.882   2.126  0.2625 -1.5282  1.3717
 2634SOL    HW210535   3.669   5.007   2.207 -0.6563  0.0294 -0.6449
 2634SOL     MW10536   3.668   4.920   2.200  0.1330 -0.1129  0.7265
 2635SOL     OW10537   3.609   1.176   1.975 -0.6685  0.5260 -0.4833
 2635SOL    HW110538   3.515   1.190   1.979 -0.6305  0.8695 -0.7186
 2635SOL    HW210539   3.644   1.228   2.048 -0.8099 -1.1110  0.8201
 2635SOL     MW10540   3.602   1.185   1.985 -0.6817  0.3604 -0.3465
 2636SOL     OW10541   1.414   3.183   5.255  0.5299 -0.5907 -0.2273
 2636SOL    HW110542   1.326   3.153   5.232 -0.0521  1.3369 -0.6548
 2636SOL    HW210543   1.435   3.135   5.336 -1.6750  0.2340  0.9235
 2636SOL     MW10544   1.405   3.173   5.263  0.1732 -0.2384 -0.1347
 2637SOL     OW10545   0.260   2.962   0.028 -0.0233  0.1853  0.3630
 2637SOL    HW110546   0.259   3.043   0.079  1.7094  0.5492 -0.1170
 2637SOL    HW210547   0.244   2.989  -0.062  1.7226  0.1956  0.0151
 2637SOL     MW10548   0.258   2.975   0.023  0.4220  0.2332  0.2570
 2638SOL     OW10549   2.288   1.407   1.268  0.1494 -0.6612 -0.2529
 2638SOL    HW110550   2.309   1.476   1.331  0.1207 -1.8756  1.1622
 2638SOL    HW210551   2.233   1.449   1.202 -0.6086  0.4706  1.0510
 2638SOL     MW10552   2.284   1.421   1.268  0.0487 -0.6717  0.0952
 2639SOL     OW10553   4.253   3.134   5.213  0.1225  0.6074 -0.1838
 2639SOL    HW110554   4.216   3.143   5.300 -0.0598  2.8223 -0.4278
 2639SOL    HW210555   4.185   3.091   5.162  0.3902 -1.0754  0.8200
 2639SOL     MW10556   4.240   3.130   5.217  0.1335  0.6755 -0.0865
 2640SOL     OW10557   1.703   2.113   1.664  0.6095 -0.0063  0.0431
 2640SOL    HW110558   1.622   2.111   1.714  1.4615  0.0766  1.4832
 2640SOL    HW210559   1.675   2.108   1.572 -1.0053  0.0672  0.5031
 2640SOL     MW10560   1.689   2.112   1.658  0.5119  0.0137  0.2863
 2641SOL     OW10561   2.230   2.304   4.361  0.1125  0.5088  0.0740
 2641SOL    HW110562   2.135   2.302   4.349 -0.0406  0.4765  1.2116
 2641SOL    HW210563   2.243   2.341   4.448  1.0509 -1.2893  0.7553
 2641SOL     MW10564   2.220   2.308   4.370  0.2130  0.2745  0.3068
 2642SOL     OW10565   4.767   2.635   5.442  0.1497 -0.0363  0.2111
 2642SOL    HW110566   4.725   2.655   5.359 -1.6348 -1.2043  0.7860
 2642SOL    HW210567   4.859   2.618   5.419 -0.1515  0.3904 -1.3854
 2642SOL     MW10568   4.774   2.635   5.428 -0.1173 -0.1312  0.0803
 2643SOL     OW10569   2.397   0.424   3.683 -0.3418  0.6329  0.6034
 2643SOL    HW110570   2.334   0.492   3.706 -1.4888 -0.1201 -0.1935
 2643SOL    HW210571   2.353   0.342   3.706  0.5086  0.1069  0.3915
 2643SOL     MW10572   2.383   0.423   3.689 -0.3798  0.4692  0.4743
 2644SOL     OW10573   0.699   2.868   2.282  0.8979  0.1485 -0.2413
 2644SOL    HW110574   0.603   2.872   2.279  0.8910 -0.3336 -1.1175
 2644SOL    HW210575   0.719   2.829   2.367  0.2675 -0.7086 -0.4698
 2644SOL     MW10576   0.689   2.863   2.292  0.8163 -0.0230 -0.3827
 2645SOL     OW10577   2.553   3.223   2.184 -0.2983 -0.2714  0.0091
 2645SOL    HW110578   2.606   3.302   2.177 -1.1290  0.1789 -1.9825
 2645SOL    HW210579   2.483   3.246   2.245  0.7127 -0.2546  1.1968
 2645SOL     MW10580   2.551   3.236   2.191 -0.2752 -0.2116 -0.0938
 2646SOL     OW10581   2.827   0.991   1.994 -0.0424  0.4748 -0.5608
 2646SOL    HW110582   2.854   1.072   1.949 -0.7918  0.1636 -1.6133
 2646SOL    HW210583   2.814   1.018   2.085  0.9310  1.2572 -0.6279
 2646SOL     MW10584   2.829   1.005   2.000 -0.0137  0.5351 -0.7041
 2647SOL     OW10585   3.005   4.509   4.396  0.4095 -0.0202  0.0129
 2647SOL    HW110586   2.941   4.522   4.466  0.0415 -0.0231 -0.3181
 2647SOL    HW210587   2.971   4.561   4.323  0.3430 -0.6827 -0.4350
 2647SOL     MW10588   2.992   4.517   4.396  0.3539 -0.1054 -0.0868
 2648SOL     OW10589   1.166   0.146   2.105 -0.0612  0.0242  0.0004
 2648SOL    HW110590   1.261   0.138   2.114  0.0484 -0.4451 -1.3406
 2648SOL    HW210591   1.138   0.189   2.186  1.5822  2.4864 -0.6320
 2648SOL     MW10592   1.174   0.150   2.117  0.1632  0.2793 -0.2522
 2649SOL     OW10593   3.219   4.042   2.417  0.5939  0.0880  0.2811
 2649SOL    HW110594   3.277   4.077   2.350  0.0391  0.8664  0.1952
 2649SOL    HW210595   3.223   4.106   2.488  1.2464 -0.7676  1.0413
 2649SOL     MW10596   3.227   4.054   2.418  0.6064  0.0781  0.3674
 2650SOL     OW10597   1.624   0.812   3.923  0.6291  0.1382  0.0893
 2650SOL    HW110598   1.667   0.819   3.838  0.9310 -0.8468  0.1492
 2650SOL    HW210599   1.534   0.784   3.902 -0.1878  2.6258 -0.0666
 2650SOL     MW10600   1.618   0.809   3.909  0.5631  0.3306  0.0770
 2651SOL     OW10601   1.551   2.188   5.132  0.6045 -0.1187  0.3908
 2651SOL    HW110602   1.460   2.204   5.107  1.0801  0.4816 -1.0970
 2651SOL    HW210603   1.551   2.099   5.168 -0.5853 -0.0784  0.5324
 2651SOL     MW10604   1.539   2.179   5.133  0.5130 -0.0367  0.2185
 2652SOL     OW10605   4.023   2.369   3.762 -0.8119  0.0745  0.2541
 2652SOL    HW110606   4.102   2.386   3.710 -0.0943 -2.3140  0.4441
 2652SOL    HW210607   3.964   2.324   3.701 -2.8674  3.3690 -0.4160
 2652SOL     MW10608   4.025   2.365   3.748 -0.9831  0.1905  0.1926
 2653SOL     OW10609   1.446   2.712   2.810  0.4751 -0.0768  0.7302
 2653SOL    HW110610   1.423   2.784   2.750 -0.7732 -2.0173 -1.2941
 2653SOL    HW210611   1.491   2.648   2.754  0.6823 -1.2885  2.2402
 2653SOL     MW10612   1.448   2.713   2.795  0.3418 -0.4803  0.6644
 2654SOL     OW10613   0.302   1.402   1.748  0.2984  0.4017 -0.4834
 2654SOL    HW110614   0.384   1.359   1.771 -0.1069 -0.7279 -1.0312
 2654SOL    HW210615   0.328   1.487   1.713  1.3068 -0.2177 -1.3206
 2654SOL     MW10616   0.315   1.407   1.746  0.3756  0.1778 -0.6607
 2655SOL     OW10617   2.492   1.793   0.793  0.2415 -0.2063  0.5359
 2655SOL    HW110618   2.529   1.866   0.843  2.0858 -0.6307 -0.1365
 2655SOL    HW210619   2.562   1.728   0.791 -0.4853 -0.9859 -0.9566
 2655SOL     MW10620   2.506   1.794   0.800  0.3846 -0.3604  0.2587
 2656SOL     OW10621   3.179   4.997   2.520  0.2275 -0.3729  0.9017
 2656SOL    HW110622   3.094   5.038   2.504 -0.1589 -1.5504 -0.3062
 2656SOL    HW210623   3.241   5.050   2.470  0.2430  0.5666  1.8888
 2656SOL     MW10624   3.176   5.009   2.511  0.1800 -0.4033  0.8735
 2657SOL     OW10625   1.161   4.664   1.916 -0.1294  0.4182 -0.3440
 2657SOL    HW110626   1.237   4.645   1.971 -0.5561  0.7904  0.3943
 2657SOL    HW210627   1.130   4.579   1.887 -0.9752  0.0567  1.4885
 2657SOL     MW10628   1.167   4.651   1.919 -0.2923  0.4196 -0.0149
 2658SOL     OW10629   0.863  -0.011   3.767  0.7253  0.5442 -0.5567
 2658SOL    HW110630   0.783   0.022   3.809  1.4641 -0.3230  1.6825
 2658SOL    HW210631   0.880   0.051   3.696 -0.1190  2.6619  0.9908
 2658SOL     MW10632   0.855   0.001   3.763  0.7118  0.7043 -0.0719
 2659SOL     OW10633   4.610   4.423   1.139 -0.4353  0.4089  0.3104
 2659SOL    HW110634   4.652   4.508   1.153  0.0643  0.3377 -0.6214
 2659SOL    HW210635   4.652   4.389   1.059  0.5527 -1.4342  1.5361
 2659SOL     MW10636   4.621   4.429   1.130 -0.2449  0.1638  0.3481
 2660SOL     OW10637   1.696   3.204   0.388  0.4935 -0.1552 -0.0973
 2660SOL    HW110638   1.643   3.257   0.448  1.7535 -0.6994  1.5966
 2660SOL    HW210639   1.633   3.160   0.331 -0.7052  1.0913  0.2320
 2660SOL     MW10640   1.681   3.205   0.388  0.5014 -0.0653  0.1617
 2661SOL     OW10641   1.535   1.958   1.476 -0.0168  0.2738 -0.5250
 2661SOL    HW110642   1.485   1.887   1.437 -2.0349  0.6159  1.2538
 2661SOL    HW210643   1.501   2.038   1.435 -0.0702  0.4263 -0.1895
 2661SOL     MW10644   1.524   1.959   1.466 -0.2820  0.3371 -0.2544
 2662SOL     OW10645   3.569   4.774   2.476  0.2526 -0.3092 -0.1891
 2662SOL    HW110646   3.561   4.835   2.402  1.0049 -0.5569 -0.4877
 2662SOL    HW210647   3.570   4.831   2.553  1.6906  0.1366 -0.5084
 2662SOL     MW10648   3.568   4.789   2.477  0.5330 -0.2838 -0.2682
 2663SOL     OW10649   4.980   5.438   3.653 -0.7015 -0.0593  0.2137
 2663SOL    HW110650   4.992   5.527   3.619 -0.8619 -0.5753 -1.2629
 2663SOL    HW210651   4.907   5.402   3.602 -0.4581 -1.1412  0.5979
 2663SOL     MW10652   4.972   5.445   3.642 -0.6909 -0.2638  0.0738
 2664SOL     OW10653   3.046   3.336   2.591 -0.4953 -0.1417 -0.3746
 2664SOL    HW110654   2.959   3.377   2.588 -0.0529  0.8279 -0.1646
 2664SOL    HW210655   3.084   3.364   2.674  0.2415 -0.1023 -0.7166
 2664SOL     MW10656   3.040   3.345   2.601 -0.3444 -0.0125 -0.3915
 2665SOL     OW10657   1.577   4.976   1.113  0.0267  0.7453  0.0817
 2665SOL    HW110658   1.485   4.949   1.117  0.6993 -1.7765  0.5806
 2665SOL    HW210659   1.576   5.056   1.062 -2.4492  0.7927  0.0632
 2665SOL     MW10660   1.565   4.983   1.107 -0.2042  0.4285  0.1432
 2666SOL     OW10661   4.329   1.676   5.296  0.2179 -0.1515  0.0886
 2666SOL    HW110662   4.374   1.606   5.249  1.3654  0.5812  0.0542
 2666SOL    HW210663   4.317   1.641   5.385  1.4296 -0.1550  0.2767
 2666SOL     MW10664   4.333   1.662   5.302  0.5199 -0.0581  0.1083
 2667SOL     OW10665   1.129   0.318   0.468  0.7293 -0.1239  0.1931
 2667SOL    HW110666   1.055   0.360   0.511 -0.5996  0.5286 -2.5003
 2667SOL    HW210667   1.099   0.229   0.450  2.0129 -1.0404  2.2373
 2667SOL     MW10668   1.116   0.312   0.471  0.7235 -0.1577  0.1100
 2668SOL     OW10669   5.267   1.545   5.175 -0.0817  0.4309  0.0445
 2668SOL    HW110670   5.315   1.582   5.249 -3.2771 -0.5959  2.9164
 2668SOL    HW210671   5.298   1.454   5.170  1.4173  0.9687 -1.1591
 2668SOL     MW10672   5.277   1.538   5.184 -0.2989  0.3683  0.2581
 2669SOL     OW10673   0.172   2.751   2.195 -0.0053  0.0860 -0.0796
 2669SOL    HW110674   0.148   2.669   2.151 -0.4795  0.2977 -0.2161
 2669SOL    HW210675   0.173   2.729   2.288  0.2432 -0.1687 -0.1396
 2669SOL     MW10676   0.169   2.737   2.201 -0.0342  0.0805 -0.1047
 2670SOL     OW10677   1.848   2.014   5.302  0.4050  1.1397  0.1819
 2670SOL    HW110678   1.834   2.048   5.214 -0.2737  0.1042 -0.1376
 2670SOL    HW210679   1.920   2.065   5.337  0.3007  1.9577 -0.7643
 2670SOL     MW10680   1.855   2.025   5.295  0.3048  1.1119  0.0199
 2671SOL     OW10681   1.801   3.639   1.518 -0.2272  0.1876 -0.4927
 2671SOL    HW110682   1.884   3.612   1.477 -0.6298 -0.8232 -0.6664
 2671SOL    HW210683   1.824   3.717   1.568  1.2835 -1.1245  1.0046
 2671SOL     MW10684   1.815   3.645   1.519 -0.0853 -0.1097 -0.3233
 2672SOL     OW10685   4.921   1.087   2.496  0.4040  0.0427  0.1689
 2672SOL    HW110686   4.980   1.112   2.567 -0.9279 -1.1353  1.7726
 2672SOL    HW210687   4.877   1.009   2.528 -0.7727 -0.1229 -1.6948
 2672SOL     MW10688   4.923   1.080   2.509  0.0829 -0.1293  0.1356
 2673SOL     OW10689   2.523   4.908   3.346  0.0223 -0.2678  0.0021
 2673SOL    HW110690   2.475   4.833   3.310 -0.9012 -0.2042  1.0658
 2673SOL    HW210691   2.540   4.885   3.437  0.2634  0.5618  0.1737
 2673SOL     MW10692   2.519   4.896   3.353 -0.0651 -0.1535  0.1603
 2674SOL     OW10693   5.457   1.599   2.757 -0.6173  0.1844 -0.1527
 2674SOL    HW110694   5.384   1.646   2.715 -0.5179 -0.6568 -1.3032
 2674SOL    HW210695   5.438   1.507   2.741 -0.3875 -0.1550  1.3938
 2674SOL     MW10696   5.445   1.593   2.750 -0.5751  0.0333 -0.1020
 2675SOL     OW10697   4.143   0.095   1.550 -0.1451  0.1285 -0.3051
 2675SOL    HW110698   4.080   0.027   1.575 -0.2431  1.0040  2.1851
 2675SOL    HW210699   4.088   0.167   1.519 -0.2766  0.2616  0.2231
 2675SOL     MW10700   4.128   0.096   1.550 -0.1745  0.2576  0.0813
 2676SOL     OW10701   4.607   2.496   0.833  0.0925  0.1558 -0.2090
 2676SOL    HW110702   4.621   2.402   0.822 -0.0214  0.3309 -2.1887
 2676SOL    HW210703   4.514   2.504   0.853  0.3004 -0.1994  0.9652
 2676SOL     MW10704   4.597   2.485   0.834  0.1045  0.1327 -0.3121
 2677SOL     OW10705   2.462   2.587   3.279  0.2492 -0.2484 -0.0410
 2677SOL    HW110706   2.535   2.549   3.327  0.7759  0.6374 -0.1194
 2677SOL    HW210707   2.403   2.621   3.346 -0.4157 -1.5266  0.0398
 2677SOL     MW10708   2.464   2.587   3.294  0.2315 -0.2987 -0.0407
 2678SOL     OW10709   0.212   3.906   0.031 -0.0073 -0.1823 -0.2826
 2678SOL    HW110710   0.248   3.993   0.019  1.3564 -0.5238  1.0850
 2678SOL    HW210711   0.170   3.886  -0.053  2.8302  0.3241 -1.9461
 2678SOL     MW10712   0.211   3.914   0.019  0.5305 -0.1612 -0.3204
 2679SOL     OW10713   4.686   0.873   0.060 -0.4562 -0.4680  0.0512
 2679SOL    HW110714   4.766   0.842   0.102  0.9070  1.2566 -1.1441
 2679SOL    HW210715   4.715   0.911  -0.023 -2.5353  0.1481 -0.4689
 2679SOL     MW10716   4.700   0.874   0.055 -0.5478 -0.1683 -0.1684
 2680SOL     OW10717   3.834   5.172   4.296 -0.3038 -0.6715 -0.5135
 2680SOL    HW110718   3.836   5.261   4.262  0.0014 -0.2641  0.5311
 2680SOL    HW210719   3.744   5.160   4.327  0.5538  0.8054  3.1145
 2680SOL     MW10720   3.823   5.182   4.296 -0.1550 -0.4303  0.0847
 2681SOL     OW10721   4.997   2.255   3.765 -0.6355  0.0446  0.1889
 2681SOL    HW110722   5.007   2.204   3.684  1.2764  1.9913 -0.8971
 2681SOL    HW210723   5.081   2.246   3.810 -1.5720 -0.7531  1.8755
 2681SOL     MW10724   5.009   2.247   3.760 -0.5107  0.1917  0.2658
 2682SOL     OW10725   5.317   1.690   3.481  0.4521 -0.2659 -0.5742
 2682SOL    HW110726   5.333   1.692   3.386  0.5718 -0.6569 -0.5653
 2682SOL    HW210727   5.287   1.778   3.502  1.5298  0.1715 -0.7837
 2682SOL     MW10728   5.316   1.702   3.471  0.6054 -0.2600 -0.5999
 2683SOL     OW10729   4.507   3.257   2.475 -0.0734  0.0893  0.4255
 2683SOL    HW110730   4.478   3.210   2.553  1.7916  0.6341  1.4931
 2683SOL    HW210731   4.463   3.342   2.479 -1.5079 -0.5989 -0.1917
 2683SOL     MW10732   4.498   3.262   2.485 -0.0183  0.0709  0.4832
 2684SOL     OW10733   0.497   1.508   4.540 -0.1158  0.5017 -0.3536
 2684SOL    HW110734   0.527   1.419   4.557 -1.5100  0.2557  0.9415
 2684SOL    HW210735   0.538   1.531   4.456  0.8484 -1.0659 -0.3502
 2684SOL     MW10736   0.506   1.499   4.531 -0.1709  0.2696 -0.1874
 2685SOL     OW10737   4.273   0.360   0.264  0.0378 -0.3048  0.1113
 2685SOL    HW110738   4.227   0.353   0.180 -1.5411  1.8016  0.7143
 2685SOL    HW210739   4.257   0.276   0.307  0.1135 -1.0773 -1.2923
 2685SOL     MW10740   4.265   0.348   0.259 -0.1546 -0.1341  0.0088
 2686SOL     OW10741   2.190   4.972   3.280  0.2454 -0.0363  0.7512
 2686SOL    HW110742   2.140   4.903   3.234  0.7749 -0.3995  0.7149
 2686SOL    HW210743   2.182   4.948   3.372  1.3870 -0.8076  0.6652
 2686SOL     MW10744   2.182   4.960   3.286  0.4593 -0.1815  0.7355
 2687SOL     OW10745   1.210   3.439   2.942  0.0649  0.0193  0.2087
 2687SOL    HW110746   1.130   3.387   2.953  0.3207 -0.3211  0.5004
 2687SOL    HW210747   1.279   3.384   2.980  0.5563 -0.0142 -0.7243
 2687SOL     MW10748   1.208   3.425   2.948  0.1605 -0.0286  0.1266
 2688SOL     OW10749   1.758   2.892   3.510  0.1271  0.5202  0.3889
 2688SOL    HW110750   1.791   2.951   3.578  0.7783 -0.8417  1.2981
 2688SOL    HW210751   1.718   2.950   3.446  0.7245  1.9482  1.2518
 2688SOL     MW10752   1.757   2.907   3.511  0.2870  0.5286  0.6157
 2689SOL     OW10753   4.278   0.706   0.544  0.3540 -0.1100  0.2697
 2689SOL    HW110754   4.185   0.687   0.559  0.7985 -1.5656  1.5022
 2689SOL    HW210755   4.278   0.783   0.488 -1.5889  0.5847  1.1282
 2689SOL     MW10756   4.266   0.713   0.539  0.1622 -0.2074  0.5373
 2690SOL     OW10757   0.704   1.124   5.323 -0.2547 -0.2091 -0.0868
 2690SOL    HW110758   0.701   1.201   5.265  0.6139 -0.1663 -0.0891
 2690SOL    HW210759   0.736   1.158   5.406  0.7902 -0.6796 -0.2868
 2690SOL     MW10760   0.708   1.138   5.326 -0.0097 -0.2639 -0.1127
 2691SOL     OW10761   3.112   0.778   3.061 -0.0321  0.8579 -0.0261
 2691SOL    HW110762   3.204   0.789   3.084  0.6408 -1.6404 -1.2433
 2691SOL    HW210763   3.112   0.751   2.969 -1.9699  0.7326 -0.0426
 2691SOL     MW10764   3.124   0.776   3.052 -0.1940  0.5220 -0.1841
 2692SOL     OW10765   3.591   1.935   0.982 -0.1259 -0.5618 -0.0431
 2692SOL    HW110766   3.655   1.906   1.046  0.2417  0.2956 -0.0081
 2692SOL    HW210767   3.620   1.896   0.900  0.2599 -0.4444  0.0348
 2692SOL     MW10768   3.603   1.926   0.980 -0.0294 -0.4370 -0.0286
 2693SOL     OW10769   3.259   2.068   5.429  0.2744 -0.1481  0.9436
 2693SOL    HW110770   3.353   2.051   5.430  0.2931 -0.0989  0.5077
 2693SOL    HW210771   3.250   2.157   5.394 -0.0163 -1.0080 -1.3990
 2693SOL     MW10772   3.270   2.077   5.424  0.2396 -0.2519  0.5879
 2694SOL     OW10773   0.370   2.411   5.078  0.4058  0.0048  0.5680
 2694SOL    HW110774   0.442   2.466   5.045  2.2722 -2.4214  0.3571
 2694SOL    HW210775   0.378   2.329   5.029 -1.7258 -0.8074  1.4839
 2694SOL     MW10776   0.380   2.408   5.067  0.3719 -0.4097  0.6582
 2695SOL     OW10777   4.844   4.783   0.369 -0.0295  0.5100  0.1590
 2695SOL    HW110778   4.921   4.735   0.401  0.5395  1.6390  0.5466
 2695SOL    HW210779   4.839   4.761   0.276  0.0470 -0.5167  0.3860
 2695SOL     MW10780   4.853   4.774   0.361  0.0531  0.5231  0.2377
 2696SOL     OW10781   2.862   4.271   1.919 -0.3662  0.1200 -0.6431
 2696SOL    HW110782   2.952   4.300   1.930 -0.5603  1.0566 -1.3457
 2696SOL    HW210783   2.868   4.178   1.897  0.4556  0.3336 -1.3226
 2696SOL     MW10784   2.874   4.263   1.918 -0.2858  0.2673 -0.8200
 2697SOL     OW10785   4.546   3.190   5.141 -0.3067  0.2763 -0.2963
 2697SOL    HW110786   4.582   3.230   5.061 -0.8756  0.1616 -0.6111
 2697SOL    HW210787   4.452   3.184   5.125 -0.4029  0.0866  0.3143
 2697SOL     MW10788   4.539   3.195   5.129 -0.3918  0.2373 -0.2585
 2698SOL     OW10789   4.409   3.830   2.299 -0.3217 -0.4353 -0.2856
 2698SOL    HW110790   4.399   3.874   2.214 -1.1422 -0.9090 -0.4409
 2698SOL    HW210791   4.503   3.832   2.315 -0.3333  1.4219 -0.2544
 2698SOL     MW10792   4.420   3.836   2.290 -0.4282 -0.2582 -0.3015
 2699SOL     OW10793   3.943   1.239   1.167  0.7838  0.8358  0.0803
 2699SOL    HW110794   3.988   1.278   1.241  2.0947  0.8467 -0.6879
 2699SOL    HW210795   3.977   1.149   1.162 -2.8217 -0.8865  2.3571
 2699SOL     MW10796   3.953   1.232   1.176  0.4901  0.6167  0.2735
 2700SOL     OW10797   4.086   3.843   2.559 -0.0398  0.1175 -0.4439
 2700SOL    HW110798   4.007   3.867   2.510  0.1285  1.9174  0.1337
 2700SOL    HW210799   4.053   3.813   2.644 -0.1727 -0.6642 -0.7574
 2700SOL     MW10800   4.072   3.842   2.563 -0.0353  0.2479 -0.4101
 2701SOL     OW10801   3.295   0.845   0.131 -0.1155  0.5966 -0.2774
 2701SOL    HW110802   3.267   0.798   0.209  1.6516  0.8521  0.5521
 2701SOL    HW210803   3.226   0.909   0.115 -0.1461  1.0818  1.5695
 2701SOL     MW10804   3.283   0.847   0.139  0.1068  0.6914  0.0652
 2702SOL     OW10805   1.233   0.255   3.930  0.5071  0.1469  0.4618
 2702SOL    HW110806   1.307   0.272   3.872 -0.8278 -0.0715 -1.3970
 2702SOL    HW210807   1.236   0.160   3.946  0.2295  0.0169 -0.2170
 2702SOL     MW10808   1.243   0.245   3.925  0.3007  0.1023  0.1369
 2703SOL     OW10809   4.180   2.656   4.028  0.0356 -0.2069 -0.3674
 2703SOL    HW110810   4.188   2.751   4.019  0.3335 -0.2532 -0.6150
 2703SOL    HW210811   4.270   2.624   4.025  0.1711 -0.2864  2.4585
 2703SOL     MW10812   4.193   2.664   4.026  0.0911 -0.2230 -0.0373
 2704SOL     OW10813   3.583   2.891   4.452  0.3170 -0.5048  0.5216
 2704SOL    HW110814   3.603   2.931   4.367 -0.2365 -1.4999 -0.1013
 2704SOL    HW210815   3.597   2.961   4.515  0.3222  0.3838 -0.4327
 2704SOL     MW10816   3.587   2.905   4.449  0.2468 -0.5184  0.3197
 2705SOL     OW10817   3.006   4.342   3.864  0.1114 -0.2523  0.0372
 2705SOL    HW110818   3.010   4.253   3.898  0.3811  0.3671  1.7463
 2705SOL    HW210819   2.996   4.397   3.942  1.9079  1.3506 -0.7630
 2705SOL     MW10820   3.005   4.338   3.879  0.3759  0.0322  0.1536
 2706SOL     OW10821   4.060   3.709   4.548  0.2060 -0.3142 -0.0143
 2706SOL    HW110822   4.140   3.730   4.500  0.6187 -2.9583 -0.5846
 2706SOL    HW210823   3.989   3.736   4.490  0.6926 -0.7737 -0.8300
 2706SOL     MW10824   4.062   3.715   4.535  0.3211 -0.7115 -0.1917
 2707SOL     OW10825   2.637   1.554   3.030  0.0579 -0.0381 -0.1792
 2707SOL    HW110826   2.651   1.472   3.079 -0.7446 -0.8756 -1.3079
 2707SOL    HW210827   2.725   1.586   3.013  0.3945 -0.7272  0.2019
 2707SOL     MW10828   2.650   1.547   3.034 -0.0017 -0.2336 -0.2749
 2708SOL     OW10829   2.992   0.355   3.868  0.1562  0.2934 -0.2965
 2708SOL    HW110830   2.914   0.389   3.912 -0.1398 -0.0522 -0.5456
 2708SOL    HW210831   2.982   0.260   3.872 -0.0436  0.2607 -1.4114
 2708SOL     MW10832   2.981   0.347   3.874  0.0927  0.2449 -0.4711
 2709SOL     OW10833   5.027   2.507   4.254  0.1546  0.3176  0.5535
 2709SOL    HW110834   5.026   2.555   4.336  0.8579  0.1917  0.6445
 2709SOL    HW210835   4.937   2.479   4.241  0.3250 -1.1118  2.1380
 2709SOL     MW10836   5.015   2.510   4.263  0.2664  0.1185  0.7680
 2710SOL     OW10837   4.425   2.948   4.844 -0.3350  0.7140 -0.4614
 2710SOL    HW110838   4.421   2.930   4.750 -0.2276 -0.6295 -0.2300
 2710SOL    HW210839   4.380   3.032   4.854 -0.7026  0.6799 -1.6594
 2710SOL     MW10840   4.419   2.957   4.834 -0.3683  0.5376 -0.5852
 2711SOL     OW10841   0.994   0.159   0.894 -0.3532  1.1224  0.3021
 2711SOL    HW110842   0.969   0.141   0.804 -0.4326  0.6739  0.4074
 2711SOL    HW210843   1.082   0.123   0.903 -0.2841  1.3029  0.3621
 2711SOL     MW10844   1.002   0.152   0.884 -0.3545  1.0881  0.3232
 2712SOL     OW10845   3.447   3.471   0.678  0.1916 -0.4082  0.0691
 2712SOL    HW110846   3.415   3.562   0.675 -0.6927 -0.6189  1.8276
 2712SOL    HW210847   3.398   3.427   0.609 -1.3418 -0.0903  0.8996
 2712SOL     MW10848   3.436   3.477   0.669 -0.1179 -0.3944  0.4005
 2713SOL     OW10849   2.646   3.515   1.666  0.7347 -0.6039  0.3711
 2713SOL    HW110850   2.558   3.520   1.628  0.8275 -1.1070  0.0817
 2713SOL    HW210851   2.687   3.440   1.623  1.6433  0.1824 -0.1991
 2713SOL     MW10852   2.640   3.506   1.656  0.8629 -0.5677  0.2611
 2714SOL     OW10853   0.466   1.875   4.256  0.2783 -0.3152 -0.1086
 2714SOL    HW110854   0.377   1.907   4.273  0.6448  0.5792  0.1215
 2714SOL    HW210855   0.509   1.946   4.208  0.3176 -1.4545 -1.8750
 2714SOL     MW10856   0.460   1.888   4.252  0.3302 -0.3465 -0.3053
 2715SOL     OW10857   4.790   1.049   4.423 -0.6315 -0.2535  0.3090
 2715SOL    HW110858   4.766   1.079   4.335 -0.4391 -0.9467  0.0151
 2715SOL    HW210859   4.726   1.091   4.481  0.0353  1.2887 -0.0022
 2715SOL     MW10860   4.779   1.058   4.419 -0.5215 -0.1448  0.2315
 2716SOL     OW10861   0.927   2.876   3.281 -0.1714 -0.3216 -0.1719
 2716SOL    HW110862   0.939   2.970   3.267  0.8334 -0.4968 -0.6142
 2716SOL    HW210863   0.981   2.857   3.358  1.1114 -0.8370 -1.1547
 2716SOL     MW10864   0.936   2.885   3.289  0.1215 -0.4100 -0.3543
 2717SOL     OW10865   0.345   3.572   3.270 -0.0680  0.0745  0.2962
 2717SOL    HW110866   0.308   3.536   3.351  0.5595 -1.1861  0.0466
 2717SOL    HW210867   0.433   3.534   3.265  0.1052  0.5808 -0.6932
 2717SOL     MW10868   0.352   3.562   3.280  0.0345 -0.0220  0.1376
 2718SOL     OW10869   2.215   1.872   5.229  0.2068 -0.0752  0.0939
 2718SOL    HW110870   2.237   1.798   5.286  0.3720  0.9448  1.4165
 2718SOL    HW210871   2.295   1.925   5.228  0.0763  0.1067 -0.8041
 2718SOL     MW10872   2.228   1.869   5.237  0.2113  0.0786  0.1483
 2719SOL     OW10873   3.048   4.052   5.415  0.1281 -0.3196  0.4166
 2719SOL    HW110874   3.015   4.140   5.433  1.2799 -0.0374  1.2905
 2719SOL    HW210875   2.997   3.994   5.472 -0.4268 -0.1849  0.0600
 2719SOL     MW10876   3.038   4.056   5.425  0.2045 -0.2662  0.4829
 2720SOL     OW10877   3.627   2.500   1.941  0.5576 -0.2236 -0.3473
 2720SOL    HW110878   3.558   2.547   1.894 -0.7299 -0.9397  0.7329
 2720SOL    HW210879   3.656   2.560   2.009  1.2492  0.1978 -1.0014
 2720SOL     MW10880   3.622   2.513   1.943  0.4813 -0.2613 -0.2928
 2721SOL     OW10881   2.920   3.089   1.130 -0.5026 -0.2984 -0.4765
 2721SOL    HW110882   2.906   3.031   1.055 -2.1172  0.4237 -0.7580
 2721SOL    HW210883   2.931   3.176   1.091  2.2147 -0.3811 -0.0844
 2721SOL     MW10884   2.920   3.093   1.115 -0.3614 -0.2165 -0.4624
 2722SOL     OW10885   1.909   2.149   2.448 -0.4096  0.1553  0.5871
 2722SOL    HW110886   1.853   2.184   2.378  0.9759  2.6485  0.6200
 2722SOL    HW210887   1.850   2.097   2.502 -2.2460  0.9837 -0.5280
 2722SOL     MW10888   1.894   2.147   2.446 -0.4673  0.5805  0.4486
 2723SOL     OW10889   1.727   5.183   2.657 -0.0482  0.2366 -0.0812
 2723SOL    HW110890   1.810   5.170   2.612 -1.0306  0.5300 -2.0871
 2723SOL    HW210891   1.743   5.256   2.717  1.0905  0.3983 -0.5593
 2723SOL     MW10892   1.740   5.191   2.659 -0.0282  0.2949 -0.3991
 2724SOL     OW10893   0.608   2.047   0.660  0.0638 -0.3540 -0.2692
 2724SOL    HW110894   0.642   2.107   0.726  1.3140 -0.2334 -0.9971
 2724SOL    HW210895   0.662   2.063   0.583 -0.6244 -1.3008 -0.9662
 2724SOL     MW10896   0.619   2.057   0.659  0.1357 -0.4598 -0.4516
 2725SOL     OW10897   3.826   4.815   3.858  0.4490 -0.2776  0.1052
 2725SOL    HW110898   3.917   4.820   3.886  0.6378  1.4031 -0.7163
 2725SOL    HW210899   3.780   4.879   3.913  0.2761  0.8189 -1.2617
 2725SOL     MW10900   3.832   4.824   3.869  0.4510  0.0779 -0.1749
 2726SOL     OW10901   5.035   2.950   0.453  0.7671  0.3095 -0.0997
 2726SOL    HW110902   5.080   2.975   0.534 -1.1496 -0.1640  1.1761
 2726SOL    HW210903   5.067   2.862   0.435  1.1882  0.4061  0.1452
 2726SOL     MW10904   5.045   2.942   0.461  0.5756  0.2612  0.0950
 2727SOL     OW10905   5.347   0.935   4.035 -0.0201  0.6344  0.6422
 2727SOL    HW110906   5.319   0.875   3.966  1.9944  0.1309  0.1762
 2727SOL    HW210907   5.418   0.985   3.994  1.3187  0.2235  2.3457
 2727SOL     MW10908   5.353   0.933   4.021  0.4092  0.5174  0.8006
 2728SOL     OW10909   2.920   2.442   5.096  0.5245  0.5519 -0.6356
 2728SOL    HW110910   2.960   2.506   5.155  1.5744 -0.7329  0.1038
 2728SOL    HW210911   2.966   2.454   5.013  1.1787  0.3410 -0.3152
 2728SOL     MW10912   2.931   2.452   5.093  0.7427  0.3605 -0.4999
 2729SOL     OW10913   3.813   4.659   0.897 -0.2942 -0.1350 -0.0146
 2729SOL    HW110914   3.771   4.709   0.966 -0.0517  0.2985 -0.1810
 2729SOL    HW210915   3.899   4.636   0.932 -0.5054 -0.6739  0.1672
 2729SOL     MW10916   3.819   4.662   0.910 -0.2902 -0.1485 -0.0126
 2730SOL     OW10917   4.438   0.455   5.453 -0.0248  0.4615  0.5982
 2730SOL    HW110918   4.481   0.522   5.506 -0.6397 -0.0731  1.8256
 2730SOL    HW210919   4.405   0.503   5.377  1.3460  1.1516  0.4047
 2730SOL     MW10920   4.439   0.470   5.450  0.0719  0.4814  0.7306
 2731SOL     OW10921   3.088   2.200   0.587  0.3634  0.0409 -0.4661
 2731SOL    HW110922   3.005   2.200   0.540  0.6857  0.7021 -1.0476
 2731SOL    HW210923   3.065   2.226   0.677 -0.1868 -0.7568 -0.3692
 2731SOL     MW10924   3.074   2.203   0.593  0.3342  0.0234 -0.5281
 2732SOL     OW10925   4.331   4.884   5.235 -0.0408  0.0306  0.2384
 2732SOL    HW110926   4.414   4.851   5.202 -0.0495  1.1028 -0.9153
 2732SOL    HW210927   4.337   4.872   5.330  0.8957 -1.0732  0.0589
 2732SOL     MW10928   4.342   4.878   5.243  0.0780  0.0266  0.0677
 2733SOL     OW10929   2.333   5.119   0.835  0.1936  0.4140  0.3533
 2733SOL    HW110930   2.393   5.077   0.774  0.2187  0.7272  0.1592
 2733SOL    HW210931   2.380   5.197   0.865  1.2801 -1.0801  2.7972
 2733SOL     MW10932   2.347   5.124   0.831  0.3359  0.2628  0.6413
 2734SOL     OW10933   3.802   1.735   4.505  0.8240  0.2568 -0.1093
 2734SOL    HW110934   3.714   1.773   4.504 -0.5004 -2.4528 -2.4742
 2734SOL    HW210935   3.857   1.803   4.545 -2.1110  2.5104  0.4788
 2734SOL     MW10936   3.798   1.749   4.510  0.2787  0.1984 -0.3367
 2735SOL     OW10937   3.388   5.376   4.372 -0.3347  0.0726  0.2596
 2735SOL    HW110938   3.326   5.306   4.392 -0.1223 -0.2445 -0.1570
 2735SOL    HW210939   3.457   5.332   4.322  0.7496  0.2081  1.5791
 2735SOL     MW10940   3.389   5.361   4.368 -0.1687  0.0494  0.3752
 2736SOL     OW10941   4.139   2.100   3.347  0.5350  0.1019  0.3941
 2736SOL    HW110942   4.058   2.142   3.373  1.0109  0.5546  1.1644
 2736SOL    HW210943   4.128   2.083   3.253  0.8364  3.1706 -0.3005
 2736SOL     MW10944   4.128   2.103   3.338  0.6345  0.5527  0.4038
 2737SOL     OW10945   0.583   1.550   1.823  0.4579 -0.0310 -0.0791
 2737SOL    HW110946   0.622   1.556   1.911 -0.2819 -0.8768  0.3210
 2737SOL    HW210947   0.587   1.457   1.801  0.6092  0.1679 -0.9421
 2737SOL     MW10948   0.589   1.539   1.832  0.3826 -0.1138 -0.1384
 2738SOL     OW10949   0.609   5.449   2.613 -0.4328 -0.4102 -0.4503
 2738SOL    HW110950   0.640   5.359   2.616 -0.0609 -0.2787 -0.0678
 2738SOL    HW210951   0.520   5.444   2.579 -1.1303 -1.1231  1.3693
 2738SOL     MW10952   0.602   5.437   2.609 -0.4745 -0.4846 -0.1684
 2739SOL     OW10953   4.735   1.278   3.797 -0.1761  0.2127  0.2210
 2739SOL    HW110954   4.789   1.246   3.868 -0.2908  0.5026  0.4431
 2739SOL    HW210955   4.664   1.325   3.840 -0.8760 -0.5739 -0.0493
 2739SOL     MW10956   4.733   1.280   3.812 -0.2804  0.1491  0.2148
 2740SOL     OW10957   1.291   2.222   0.479  0.3477 -0.6499 -0.5715
 2740SOL    HW110958   1.366   2.208   0.538 -0.0829 -0.9021 -0.0735
 2740SOL    HW210959   1.261   2.133   0.458 -0.5761 -0.5473  0.2371
 2740SOL     MW10960   1.297   2.209   0.484  0.1743 -0.6690 -0.4042
 2741SOL     OW10961   5.174   3.592   1.059 -0.7218  0.7871 -0.0871
 2741SOL    HW110962   5.112   3.639   1.115  1.3419  1.0370  2.2093
 2741SOL    HW210963   5.186   3.507   1.102  1.8671  1.4611  0.7558
 2741SOL     MW10964   5.168   3.587   1.072 -0.1262  0.9054  0.3148
 2742SOL     OW10965   2.538   2.441   4.157 -0.0182  0.0076  0.0215
 2742SOL    HW110966   2.463   2.416   4.104  0.1819 -0.8142  0.1000
 2742SOL    HW210967   2.563   2.528   4.125  0.6115 -0.7868 -1.8282
 2742SOL     MW10968   2.532   2.449   4.146  0.0880 -0.1993 -0.2052
 2743SOL     OW10969   3.351   0.433   3.232 -0.1132  0.5292 -0.2053
 2743SOL    HW110970   3.323   0.456   3.143 -0.4332 -0.3954 -0.3604
 2743SOL    HW210971   3.269   0.416   3.278  0.0422  1.1963  0.3317
 2743SOL     MW10972   3.337   0.434   3.227 -0.1342  0.4963 -0.1564
 2744SOL     OW10973   5.219   1.433   4.792 -0.4125 -0.1479  0.5894
 2744SOL    HW110974   5.185   1.354   4.833  0.2108 -0.5632  0.3144
 2744SOL    HW210975   5.272   1.402   4.719 -0.1982  0.5243  0.4501
 2744SOL     MW10976   5.221   1.419   4.788 -0.3053 -0.1150  0.5363
 2745SOL     OW10977   0.714   3.720   2.656  0.5514  0.3568 -0.1013
 2745SOL    HW110978   0.801   3.741   2.688  0.6876 -0.2283 -0.0758
 2745SOL    HW210979   0.724   3.635   2.613 -0.2563 -0.3260  1.0143
 2745SOL     MW10980   0.726   3.712   2.654  0.4655  0.1945  0.0448
 2746SOL     OW10981   2.301   5.042   2.837 -0.2871 -0.0287 -1.0832
 2746SOL    HW110982   2.377   5.004   2.794 -0.4632  0.1517 -1.5582
 2746SOL    HW210983   2.313   5.022   2.930 -0.2864 -1.0934 -1.3012
 2746SOL     MW10984   2.312   5.034   2.844 -0.3096 -0.1419 -1.1719
 2747SOL     OW10985   4.167   4.138   1.098  0.2617 -0.3879  0.5959
 2747SOL    HW110986   4.119   4.203   1.148  0.3676 -0.1401  0.3757
 2747SOL    HW210987   4.114   4.058   1.105 -0.6952  0.1304 -0.4488
 2747SOL     MW10988   4.154   4.136   1.105  0.1527 -0.2899  0.4340
 2748SOL     OW10989   4.465   4.754   0.861 -0.5576 -0.0965 -0.1976
 2748SOL    HW110990   4.462   4.822   0.793 -0.5178 -0.4469 -0.5483
 2748SOL    HW210991   4.552   4.714   0.851  0.3731  1.3455  1.5167
 2748SOL     MW10992   4.476   4.758   0.851 -0.4334  0.0432 -0.0231
 2749SOL     OW10993   3.224   2.638   3.166 -0.1585  0.7380  0.2197
 2749SOL    HW110994   3.297   2.660   3.223 -1.1609  0.0481  1.8422
 2749SOL    HW210995   3.165   2.586   3.221 -2.4338  2.2299 -0.6465
 2749SOL     MW10996   3.226   2.635   3.180 -0.5781  0.8406  0.3165
 2750SOL     OW10997   3.382   4.256   1.868  0.2908  0.3828  0.1062
 2750SOL    HW110998   3.350   4.167   1.886  0.9981  0.2758  0.9174
 2750SOL    HW210999   3.371   4.268   1.774  1.1091 -0.9469 -0.1818
 2750SOL     MW11000   3.377   4.246   1.858  0.4861  0.1989  0.1731
 2751SOL     OW11001   3.018   0.466   4.410  0.3459 -0.6085  0.1135
 2751SOL    HW111002   3.105   0.457   4.371  0.3852  2.5329 -0.7791
 2751SOL    HW211003   3.006   0.560   4.421 -2.3150 -1.0283  1.7714
 2751SOL     MW11004   3.027   0.477   4.406  0.0103 -0.2601  0.2114
 2752SOL     OW11005   1.350   2.845   4.074  0.4705  0.2854  0.0411
 2752SOL    HW111006   1.299   2.851   4.154  0.1935 -1.5389  0.0320
 2752SOL    HW211007   1.441   2.840   4.103  0.5158  1.3923  0.1410
 2752SOL     MW11008   1.355   2.845   4.088  0.4408  0.1936  0.0527
 2753SOL     OW11009   2.497   5.067   5.433  0.1873 -0.2469  0.4319
 2753SOL    HW111010   2.480   5.147   5.483  1.7601 -0.2868  1.0706
 2753SOL    HW211011   2.528   5.004   5.498  1.5545 -0.5336 -0.4535
 2753SOL     MW11012   2.499   5.069   5.448  0.5636 -0.2887  0.4003
 2754SOL     OW11013   4.690   2.541   2.102 -0.1828 -0.9419 -0.0523
 2754SOL    HW111014   4.600   2.573   2.092  0.1580 -0.4998 -2.2888
 2754SOL    HW211015   4.682   2.446   2.101 -0.6740 -0.9198  0.6393
 2754SOL     MW11016   4.678   2.533   2.101 -0.2021 -0.8825 -0.2501
 2755SOL     OW11017   1.104   2.368   4.672 -0.0201  0.3330  0.2013
 2755SOL    HW111018   1.117   2.318   4.753 -0.4898 -0.5035 -0.2254
 2755SOL    HW211019   1.185   2.355   4.623  0.9824  2.2330  1.2237
 2755SOL     MW11020   1.116   2.360   4.676  0.0481  0.4692  0.2775
 2756SOL     OW11021   3.744   4.560   2.497  0.2458  0.7948 -0.3414
 2756SOL    HW111022   3.692   4.628   2.454 -0.1143  0.5626 -0.2805
 2756SOL    HW211023   3.771   4.502   2.426  1.0883  1.3484 -0.4780
 2756SOL     MW11024   3.741   4.562   2.483  0.3075  0.8360 -0.3511
 2757SOL     OW11025   0.406   0.698   1.301  0.1711  0.1638 -0.6575
 2757SOL    HW111026   0.385   0.775   1.248 -0.9179  0.3487  0.0113
 2757SOL    HW211027   0.425   0.733   1.388 -1.0103 -0.3444 -0.1617
 2757SOL     MW11028   0.406   0.712   1.305 -0.1195  0.1224 -0.5084
 2758SOL     OW11029   0.702   3.598   1.811 -0.0764  0.0749 -0.5748
 2758SOL    HW111030   0.617   3.599   1.768 -0.3273 -1.8105 -0.2210
 2758SOL    HW211031   0.748   3.675   1.776 -0.5385 -0.8982 -3.6521
 2758SOL     MW11032   0.697   3.608   1.801 -0.1677 -0.2910 -0.9235
 2759SOL     OW11033   2.215   5.457   1.971 -0.4661  0.0700 -0.5458
 2759SOL    HW111034   2.230   5.457   2.065 -2.3981 -1.9312 -0.1298
 2759SOL    HW211035   2.236   5.368   1.943 -0.5886  0.4324 -1.8766
 2759SOL     MW11036   2.219   5.446   1.979 -0.7291 -0.1398 -0.6629
 2760SOL     OW11037   0.874   3.409   4.498  0.2471 -0.3660 -0.3805
 2760SOL    HW111038   0.795   3.355   4.503 -0.2850  0.4687  0.9201
 2760SOL    HW211039   0.922   3.374   4.423 -0.9059 -1.4943 -0.6428
 2760SOL     MW11040   0.870   3.397   4.489  0.0314 -0.4035 -0.2476
 2761SOL     OW11041   2.565   4.578   3.537 -0.3162 -0.0401  0.4698
 2761SOL    HW111042   2.578   4.527   3.456 -0.5365 -1.3658  1.2396
 2761SOL    HW211043   2.631   4.647   3.532  0.6021 -0.9209 -0.2048
 2761SOL     MW11044   2.575   4.580   3.526 -0.2268 -0.3226  0.4820
 2762SOL     OW11045   0.366   5.150   0.160  0.2128  0.6886 -0.1761
 2762SOL    HW111046   0.393   5.076   0.215  0.6980  1.9405  1.3505
 2762SOL    HW211047   0.387   5.122   0.070  1.6569 -0.4856  0.4801
 2762SOL     MW11048   0.372   5.137   0.155  0.4597  0.6985  0.1033
 2763SOL     OW11049   4.856   5.051   3.499 -0.1100  0.0087  0.5269
 2763SOL    HW111050   4.892   5.030   3.413  0.3754  2.1776  0.1288
 2763SOL    HW211051   4.924   5.026   3.561  0.6520  0.8419  0.0453
 2763SOL     MW11052   4.869   5.045   3.496  0.0497  0.3930  0.4143
 2764SOL     OW11053   4.376   4.526   5.268 -0.0404  0.2855 -0.4296
 2764SOL    HW111054   4.317   4.571   5.330  0.3452 -0.2714  0.3650
 2764SOL    HW211055   4.333   4.535   5.183 -1.4337 -0.3355  0.1685
 2764SOL     MW11056   4.363   4.533   5.265 -0.1694  0.1347 -0.2513
 2765SOL     OW11057   2.590   3.016   4.171  0.1861  0.1738 -0.0009
 2765SOL    HW111058   2.543   3.000   4.089 -1.2654  0.6660  0.7002
 2765SOL    HW211059   2.602   2.929   4.209  0.5642 -0.0256 -0.5562
 2765SOL     MW11060   2.586   3.003   4.165  0.0487  0.2113  0.0178
 2766SOL     OW11061   2.337   1.003   3.163 -0.1530 -0.3494 -0.2546
 2766SOL    HW111062   2.371   1.054   3.089  0.7544 -3.0612 -1.8335
 2766SOL    HW211063   2.397   1.023   3.235  0.2869  0.6248 -0.8620
 2766SOL     MW11064   2.349   1.012   3.163  0.0195 -0.5719 -0.5344
 2767SOL     OW11065   2.053   1.945   2.677 -0.2088  0.1954 -0.4368
 2767SOL    HW111066   2.011   1.865   2.646  0.8712 -0.6955  0.3430
 2767SOL    HW211067   2.121   1.963   2.613  0.3500 -0.2175  0.0264
 2767SOL     MW11068   2.056   1.937   2.665  0.0010  0.0285 -0.2777
 2768SOL     OW11069   0.359   2.208   4.078 -0.2111  0.2284 -0.4538
 2768SOL    HW111070   0.443   2.165   4.092 -0.0929  0.8132  0.7399
 2768SOL    HW211071   0.327   2.172   3.995 -0.0269 -2.0204  0.3864
 2768SOL     MW11072   0.365   2.198   4.069 -0.1724  0.0154 -0.1935
 2769SOL     OW11073   3.554   3.913   2.363  0.2603 -0.0048  0.5293
 2769SOL    HW111074   3.572   3.819   2.365  1.0002  0.1404  1.0759
 2769SOL    HW211075   3.619   3.951   2.422  1.4984  1.1067 -1.4243
 2769SOL     MW11076   3.565   3.906   2.371  0.5135  0.1561  0.3492
 2770SOL     OW11077   3.566  -0.017   4.182  0.3195  0.1495  0.1740
 2770SOL    HW111078   3.531   0.057   4.230 -1.3606 -0.2096 -0.4308
 2770SOL    HW211079   3.610   0.021   4.106 -1.8055  0.5459 -0.9468
 2770SOL     MW11080   3.567  -0.003   4.178 -0.1676  0.1543 -0.0469
 2771SOL     OW11081   0.509   3.540   2.828 -0.5437 -0.1020 -0.1780
 2771SOL    HW111082   0.504   3.627   2.788  2.2687  0.7858  1.1692
 2771SOL    HW211083   0.454   3.546   2.906  1.1311  1.2005  0.9770
 2771SOL     MW11084   0.501   3.552   2.833  0.0307  0.1784  0.1423
 2772SOL     OW11085   3.149   4.317   1.963  0.7589  0.0148  0.1310
 2772SOL    HW111086   3.230   4.302   1.915  0.0204  0.0210 -1.1683
 2772SOL    HW211087   3.151   4.409   1.987  0.1059  0.6359 -1.9788
 2772SOL     MW11088   3.159   4.327   1.960  0.5807  0.0951 -0.3054
 2773SOL     OW11089   0.704   5.158   0.949  0.1424 -0.2458 -0.1774
 2773SOL    HW111090   0.660   5.084   0.989 -1.4777  0.5766 -0.3682
 2773SOL    HW211091   0.763   5.119   0.884  0.7889 -1.4351  1.0891
 2773SOL     MW11092   0.706   5.144   0.946  0.0177 -0.2928 -0.0397
 2774SOL     OW11093   0.617   1.384   0.528  0.3702  0.3224 -0.3476
 2774SOL    HW111094   0.576   1.455   0.578  0.7165 -1.0367  1.9607
 2774SOL    HW211095   0.569   1.384   0.444 -2.2291  0.8346  1.0303
 2774SOL     MW11096   0.606   1.393   0.523  0.0818  0.2139  0.1243
 2775SOL     OW11097   4.258   0.673   4.396 -0.6059  0.4552 -0.1870
 2775SOL    HW111098   4.283   0.585   4.370  0.0311  1.0704 -1.7795
 2775SOL    HW211099   4.199   0.703   4.327 -1.9052  0.7952  1.0344
 2775SOL     MW11100   4.254   0.666   4.384 -0.6907  0.5774 -0.2345
 2776SOL     OW11101   2.303   4.918   1.519 -0.4010 -0.3212 -0.3044
 2776SOL    HW111102   2.323   4.837   1.565  0.3267  0.3906  0.6805
 2776SOL    HW211103   2.264   4.975   1.585 -1.5315 -0.0849 -1.1433
 2776SOL     MW11104   2.301   4.915   1.533 -0.4526 -0.1998 -0.2857
 2777SOL     OW11105   0.007   4.005   0.182 -0.5549 -0.4496  0.2200
 2777SOL    HW111106  -0.053   3.984   0.111 -0.6680  2.2762 -0.5832
 2777SOL    HW211107   0.094   3.992   0.144 -0.6181  0.6736 -0.3301
 2777SOL     MW11108   0.010   4.001   0.168 -0.5775  0.0431  0.0468
 2778SOL     OW11109   2.158   3.657   2.030 -0.9549  0.7630  0.3674
 2778SOL    HW111110   2.232   3.653   1.969  0.0550  1.3738  1.5167
 2778SOL    HW211111   2.133   3.565   2.042 -1.5674  0.6666 -1.4000
 2778SOL     MW11112   2.164   3.645   2.024 -0.9040  0.8288  0.2883
 2779SOL     OW11113   1.060   0.633   4.464 -0.0148  0.8053  0.0944
 2779SOL    HW111114   1.126   0.701   4.476  1.2760 -0.3786 -0.0986
 2779SOL    HW211115   1.017   0.626   4.549  0.7713  0.9198  0.5102
 2779SOL     MW11116   1.063   0.641   4.476  0.2510  0.6684  0.1229
 2780SOL     OW11117   4.190   1.105   0.186 -0.4844 -0.0487 -0.0433
 2780SOL    HW111118   4.243   1.069   0.115 -0.0937  0.2700  0.0795
 2780SOL    HW211119   4.123   1.158   0.142 -0.0184  0.4487 -0.1677
 2780SOL     MW11120   4.188   1.107   0.171 -0.3748  0.0558 -0.0435
 2781SOL     OW11121   0.700   3.373   1.309 -0.6332 -0.1275  0.3741
 2781SOL    HW111122   0.682   3.347   1.400  1.6776 -0.1744  0.9034
 2781SOL    HW211123   0.657   3.458   1.300 -2.8181 -1.1297  0.7317
 2781SOL     MW11124   0.692   3.381   1.320 -0.6171 -0.2618  0.4876
 2782SOL     OW11125   1.220   3.759   2.691 -0.2703  0.6074  0.5308
 2782SOL    HW111126   1.255   3.672   2.670 -0.6109  0.2409  1.4285
 2782SOL    HW211127   1.296   3.810   2.717 -0.2159  0.2083  1.1814
 2782SOL     MW11128   1.234   3.754   2.691 -0.3069  0.5094  0.7290
 2783SOL     OW11129   0.848   2.522   5.260  0.2982  0.2621  0.3445
 2783SOL    HW111130   0.879   2.528   5.170  1.4331  0.6974  0.7454
 2783SOL    HW211131   0.839   2.613   5.289 -2.4921  0.2181 -0.0884
 2783SOL     MW11132   0.851   2.534   5.253  0.0863  0.3122  0.3404
 2784SOL     OW11133   0.016   2.556   2.042 -0.2479  0.1427 -0.2855
 2784SOL    HW111134   0.093   2.579   1.990  1.4303  1.4184  2.5784
 2784SOL    HW211135  -0.042   2.632   2.035 -0.0052  0.3326 -0.2392
 2784SOL     MW11136   0.018   2.568   2.034 -0.0020  0.3303  0.0871
 2785SOL     OW11137   0.333   2.773   2.805 -0.4282  0.7865  0.0272
 2785SOL    HW111138   0.376   2.762   2.720  1.0762 -1.6553  1.0124
 2785SOL    HW211139   0.397   2.820   2.858 -0.8681  1.2138  0.1847
 2785SOL     MW11140   0.347   2.778   2.801 -0.2919  0.5286  0.1735
 2786SOL     OW11141   0.454   0.787   1.587  0.5925 -0.2854  0.2061
 2786SOL    HW111142   0.489   0.708   1.627  1.2287 -1.8616 -3.0821
 2786SOL    HW211143   0.365   0.764   1.562  0.2527  0.5879  0.5690
 2786SOL     MW11144   0.447   0.774   1.589  0.6305 -0.3754 -0.1684
 2787SOL     OW11145   5.138   2.369   1.229  0.7391 -0.6052  0.5993
 2787SOL    HW111146   5.229   2.390   1.251  1.3094  1.3180 -2.8640
 2787SOL    HW211147   5.090   2.449   1.251  0.2866 -0.8225  0.3923
 2787SOL     MW11148   5.144   2.382   1.235  0.7541 -0.3868  0.1294
 2788SOL     OW11149   1.868   4.195   0.828 -0.1891  0.4941 -0.2854
 2788SOL    HW111150   1.891   4.226   0.915 -0.2281  0.1429 -0.1524
 2788SOL    HW211151   1.907   4.108   0.821 -3.1859 -1.0914  0.7558
 2788SOL     MW11152   1.876   4.188   0.838 -0.5777  0.2462 -0.1351
 2789SOL     OW11153   0.359   1.121   3.115  0.1643 -0.3771 -0.3103
 2789SOL    HW111154   0.274   1.119   3.070  0.0237  0.4408 -0.1062
 2789SOL    HW211155   0.377   1.030   3.137 -1.4069 -0.4108  0.9934
 2789SOL     MW11156   0.350   1.109   3.112 -0.0548 -0.2767 -0.1173
 2790SOL     OW11157   4.203   3.986   5.235  0.5428  0.3900  0.4680
 2790SOL    HW111158   4.135   4.039   5.277  0.3196  2.2449 -2.0199
 2790SOL    HW211159   4.156   3.912   5.196  0.4718 -0.1968  1.6308
 2790SOL     MW11160   4.188   3.984   5.235  0.5052  0.5524  0.2984
 2791SOL     OW11161   4.689   0.412   4.136  0.2377 -0.2215  0.4470
 2791SOL    HW111162   4.671   0.494   4.090  0.1894 -0.0389  0.7879
 2791SOL    HW211163   4.638   0.346   4.089 -0.0143  0.0076  0.3989
 2791SOL     MW11164   4.680   0.414   4.124  0.1993 -0.1688  0.4844
 2792SOL     OW11165   0.551   3.928   1.854 -0.0703 -0.5544 -0.1344
 2792SOL    HW111166   0.599   3.861   1.903  0.2843 -0.4858 -0.3837
 2792SOL    HW211167   0.459   3.913   1.877 -0.0592 -1.5311 -0.6689
 2792SOL     MW11168   0.545   3.918   1.863 -0.0235 -0.6706 -0.2347
 2793SOL     OW11169   1.548   3.829   1.451 -0.1696 -0.0618 -0.0856
 2793SOL    HW111170   1.623   3.793   1.402  0.5567 -1.0166  1.6180
 2793SOL    HW211171   1.579   3.833   1.541 -1.9417  0.2599  0.5398
 2793SOL     MW11172   1.562   3.825   1.456 -0.3035 -0.1429  0.2125
 2794SOL     OW11173   2.699   3.131   1.282  0.1629  0.0483  0.3711
 2794SOL    HW111174   2.777   3.122   1.227 -0.4533  2.4657 -1.0841
 2794SOL    HW211175   2.651   3.049   1.270  1.9813 -1.0873  0.5379
 2794SOL     MW11176   2.703   3.120   1.273  0.3168  0.2124  0.2062
 2795SOL     OW11177   4.075   1.499   0.983  0.0390 -0.2417  0.2921
 2795SOL    HW111178   4.021   1.461   0.913 -0.3691 -0.9242  0.9553
 2795SOL    HW211179   4.024   1.573   1.015  0.5333  0.4862 -0.5645
 2795SOL     MW11180   4.061   1.504   0.978  0.0500 -0.2359  0.2674
 2796SOL     OW11181   2.755   1.680   2.135 -0.2477 -0.3958 -0.3614
 2796SOL    HW111182   2.803   1.598   2.143  0.1757 -0.0922  0.3144
 2796SOL    HW211183   2.752   1.714   2.225 -2.0520 -0.5950 -0.3127
 2796SOL     MW11184   2.761   1.674   2.148 -0.4245 -0.3824 -0.2686
 2797SOL     OW11185   1.413   3.756   0.658 -0.3496 -0.6950  0.2404
 2797SOL    HW111186   1.428   3.842   0.697  0.2649  1.4250 -4.1117
 2797SOL    HW211187   1.492   3.706   0.680 -0.7704 -0.3020  2.9617
 2797SOL     MW11188   1.425   3.760   0.666 -0.3248 -0.3733  0.0316
 2798SOL     OW11189   3.385   4.374   3.055  0.4498 -0.2547  0.4318
 2798SOL    HW111190   3.399   4.383   3.149 -1.9978  0.1401  0.8266
 2798SOL    HW211191   3.426   4.291   3.033  2.1762  0.2383  1.5677
 2798SOL     MW11192   3.392   4.364   3.064  0.3575 -0.1411  0.6278
 2799SOL     OW11193   4.889   2.326   3.415  0.2374  0.0929  0.2729
 2799SOL    HW111194   4.850   2.272   3.484 -0.2857 -1.8629 -1.4137
 2799SOL    HW211195   4.972   2.356   3.451  0.0181 -0.9411  1.7148
 2799SOL     MW11196   4.895   2.323   3.429  0.1424 -0.2899  0.2416
 2800SOL     OW11197   5.005   1.284   3.607  0.7066 -1.0758  0.2113
 2800SOL    HW111198   5.035   1.261   3.695  0.5498  0.1224  0.5863
 2800SOL    HW211199   5.054   1.363   3.584  0.2386 -0.9783 -0.4988
 2800SOL     MW11200   5.015   1.291   3.615  0.6266 -0.9099  0.1684
 2801SOL     OW11201   2.207   4.833   3.539  0.5186  0.1681  0.2753
 2801SOL    HW111202   2.120   4.812   3.571 -0.2822  2.2516 -0.3770
 2801SOL    HW211203   2.218   4.780   3.461  0.1892 -0.7145  0.8131
 2801SOL     MW11204   2.198   4.824   3.533  0.3739  0.3218  0.2607
 2802SOL     OW11205   3.667   1.926   2.745 -0.0664 -0.2164  0.2047
 2802SOL    HW111206   3.678   1.833   2.765  0.0696 -0.3231 -0.3425
 2802SOL    HW211207   3.645   1.967   2.829 -0.5920 -0.8173  0.3612
 2802SOL     MW11208   3.666   1.920   2.758 -0.1163 -0.3070  0.1547
 2803SOL     OW11209   1.664   0.267   0.686  0.2015 -0.2330  0.3258
 2803SOL    HW111210   1.570   0.276   0.699  0.1524 -0.6031  0.2126
 2803SOL    HW211211   1.673   0.208   0.612  0.5284 -0.7542  0.7722
 2803SOL     MW11212   1.653   0.261   0.679  0.2370 -0.3471  0.3685
 2804SOL     OW11213   1.331   2.357   3.055  0.4546 -0.0385  0.1745
 2804SOL    HW111214   1.273   2.412   3.108  1.6898  0.5168  1.0186
 2804SOL    HW211215   1.338   2.403   2.971  1.1386  0.9042  0.7251
 2804SOL     MW11216   1.325   2.370   3.051  0.7003  0.1532  0.3530
 2805SOL     OW11217   3.443   0.552   5.265  0.3110 -0.3562  0.1977
 2805SOL    HW111218   3.435   0.489   5.194 -1.3347 -1.8236  1.5790
 2805SOL    HW211219   3.485   0.503   5.336 -0.0876  0.4037  0.9726
 2805SOL     MW11220   3.447   0.537   5.265  0.0493 -0.4467  0.4737
 2806SOL     OW11221   2.989   2.024   4.555  0.5138  0.1291 -0.0303
 2806SOL    HW111222   2.971   1.955   4.618 -1.0583  0.1699 -0.3944
 2806SOL    HW211223   2.960   1.989   4.471 -0.1970  1.1499 -0.2397
 2806SOL     MW11224   2.983   2.011   4.552  0.2216  0.2650 -0.1037
 2807SOL     OW11225   4.829   3.748   5.246  0.0801  0.2397  0.0436
 2807SOL    HW111226   4.818   3.731   5.339  0.6028  2.1030  0.4943
 2807SOL    HW211227   4.922   3.768   5.236 -0.1640  1.1158 -0.6614
 2807SOL     MW11228   4.839   3.749   5.256  0.1158  0.5904  0.0111
 2808SOL     OW11229   0.752   1.583   4.910  0.4847 -0.1181 -0.2865
 2808SOL    HW111230   0.737   1.656   4.850  0.3990 -0.0670 -0.2019
 2808SOL    HW211231   0.678   1.586   4.971  1.8558  1.3883  1.4155
 2808SOL     MW11232   0.740   1.593   4.910  0.6493  0.0813 -0.0578
 2809SOL     OW11233   0.407   3.793   0.563  0.2011  0.1814 -0.1896
 2809SOL    HW111234   0.414   3.886   0.540  0.2469  0.3885  0.6052
 2809SOL    HW211235   0.346   3.792   0.637 -1.4166 -0.6498 -1.4866
 2809SOL     MW11236   0.400   3.805   0.570 -0.0001  0.1015 -0.2539
 2810SOL     OW11237   5.156   3.043   1.964 -0.1951 -0.3017 -0.5766
 2810SOL    HW111238   5.183   3.075   1.878 -0.4265  1.1243 -0.1323
 2810SOL    HW211239   5.065   3.069   1.972  0.1755  0.7163  0.6128
 2810SOL     MW11240   5.148   3.050   1.954 -0.1773  0.0111 -0.3675
 2811SOL     OW11241   0.488   2.205   5.428  0.2278 -0.4076 -0.4781
 2811SOL    HW111242   0.529   2.285   5.394 -1.0395  0.2353 -0.5487
 2811SOL    HW211243   0.526   2.194   5.515 -1.4597  1.7710  0.6133
 2811SOL     MW11244   0.498   2.214   5.435 -0.1504 -0.0464 -0.3475
 2812SOL     OW11245   4.797   0.759   1.663  0.2773 -0.6498  0.0014
 2812SOL    HW111246   4.805   0.701   1.588  2.4136 -0.1145 -0.2384
 2812SOL    HW211247   4.852   0.720   1.730  1.2827  0.7545  0.0339
 2812SOL     MW11248   4.805   0.747   1.662  0.6795 -0.4015 -0.0251
 2813SOL     OW11249   0.060   2.226   2.170  0.1470  0.2908  0.7564
 2813SOL    HW111250  -0.030   2.251   2.146 -0.8764 -0.5365  3.3578
 2813SOL    HW211251   0.078   2.149   2.116 -0.3736  0.9431 -0.3885
 2813SOL     MW11252   0.051   2.219   2.160 -0.0506  0.2684  0.9428
 2814SOL     OW11253   4.201   1.688   1.263  0.6704  0.4526  0.0062
 2814SOL    HW111254   4.137   1.621   1.289  1.3204  0.4740  1.8510
 2814SOL    HW211255   4.157   1.739   1.195 -0.7437 -0.3724  0.2657
 2814SOL     MW11256   4.187   1.686   1.258  0.5726  0.3498  0.2756
 2815SOL     OW11257   0.461   3.122   1.004  0.1337 -0.2180  0.3613
 2815SOL    HW111258   0.446   3.051   0.942  2.9484 -1.2396  0.6966
 2815SOL    HW211259   0.548   3.156   0.981  0.2215  0.9814  2.2413
 2815SOL     MW11260   0.471   3.117   0.993  0.5052 -0.1953  0.6449
 2816SOL     OW11261   3.876   0.300   3.778  0.4351 -0.5101 -0.0713
 2816SOL    HW111262   3.970   0.316   3.776  0.3993 -0.2957 -1.4219
 2816SOL    HW211263   3.853   0.281   3.687 -1.1237  1.3372 -0.1400
 2816SOL     MW11264   3.885   0.300   3.766  0.2309 -0.2462 -0.2530
 2817SOL     OW11265   1.962   3.158   1.963  0.1775 -0.0595  0.5784
 2817SOL    HW111266   1.907   3.200   2.031 -0.0027 -0.4426  0.6714
 2817SOL    HW211267   1.899   3.112   1.907  0.1988  1.3296 -0.6293
 2817SOL     MW11268   1.947   3.158   1.965  0.1572  0.0693  0.4357
 2818SOL     OW11269   3.328  -0.022   5.413 -0.2770  0.0784  0.1198
 2818SOL    HW111270   3.403   0.036   5.403  1.4910 -2.0239  0.3023
 2818SOL    HW211271   3.264   0.010   5.350  1.2318  1.2512 -0.8859
 2818SOL     MW11272   3.330  -0.011   5.404  0.1424 -0.0406  0.0144
 2819SOL     OW11273   3.328   1.488   0.791 -0.2971 -0.4102  0.1849
 2819SOL    HW111274   3.325   1.437   0.872 -0.8856  1.4289  1.3925
 2819SOL    HW211275   3.237   1.490   0.761 -0.6971  1.7014  1.3722
 2819SOL     MW11276   3.316   1.482   0.798 -0.4236  0.0955  0.4915
 2820SOL     OW11277   4.522   3.593   4.284 -0.7429  0.4858 -0.8536
 2820SOL    HW111278   4.615   3.578   4.270 -0.5553  2.3824 -1.8545
 2820SOL    HW211279   4.488   3.507   4.312  1.3857 -0.0833  0.1813
 2820SOL     MW11280   4.530   3.580   4.286 -0.4464  0.6557 -0.8493
 2821SOL     OW11281   3.016   0.592   2.435 -0.0440 -0.3189 -0.2238
 2821SOL    HW111282   2.956   0.540   2.382 -1.1149  1.4361 -0.8119
 2821SOL    HW211283   3.032   0.671   2.384  1.1366  0.1772  0.8531
 2821SOL     MW11284   3.010   0.596   2.422 -0.0300 -0.0307 -0.1613
 2822SOL     OW11285   1.234   2.037   4.554 -0.3169 -0.0177 -0.5419
 2822SOL    HW111286   1.188   2.041   4.638  0.4397 -2.2542  0.0615
 2822SOL    HW211287   1.168   2.006   4.492 -0.8320  1.4738 -0.7802
 2822SOL     MW11288   1.219   2.033   4.557 -0.2860 -0.1131 -0.4952
 2823SOL     OW11289   0.568   3.416   0.152 -0.5157  0.3445  0.6026
 2823SOL    HW111290   0.529   3.351   0.094  0.2884  1.5885 -1.4209
 2823SOL    HW211291   0.503   3.428   0.221 -2.2446 -0.0391 -0.8942
 2823SOL     MW11292   0.555   3.409   0.153 -0.6340  0.4547  0.1520
 2824SOL     OW11293   2.870   4.304   0.456  0.2914 -0.0744 -0.1886
 2824SOL    HW111294   2.777   4.301   0.432  0.1808  0.8181  0.1141
 2824SOL    HW211295   2.916   4.291   0.373 -0.0471 -3.6542  0.0138
 2824SOL     MW11296   2.864   4.302   0.442  0.2339 -0.4184 -0.1239
 2825SOL     OW11297   3.408   5.111   0.702  0.2509 -0.1605  0.1510
 2825SOL    HW111298   3.314   5.126   0.696  0.2717  0.1649  0.6962
 2825SOL    HW211299   3.447   5.180   0.648  0.0734 -2.0290 -2.6253
 2825SOL     MW11300   3.401   5.121   0.694  0.2308 -0.3580 -0.1346
 2826SOL     OW11301   4.738   1.405   2.595  0.2226 -0.6701  0.4072
 2826SOL    HW111302   4.751   1.362   2.680  0.9447 -1.2699 -0.0013
 2826SOL    HW211303   4.719   1.496   2.617  0.4610 -0.8095  1.2100
 2826SOL     MW11304   4.737   1.411   2.609  0.3455 -0.7647  0.4577
 2827SOL     OW11305   4.286   3.369   4.596 -0.1105  0.3550 -0.2648
 2827SOL    HW111306   4.310   3.446   4.647 -0.8313 -0.4586  1.3821
 2827SOL    HW211307   4.206   3.395   4.551 -0.7400  0.3759  0.8244
 2827SOL     MW11308   4.279   3.382   4.597 -0.2833  0.2535  0.0854
 2828SOL     OW11309   5.416   5.251   0.237  0.1759  0.3893 -0.3846
 2828SOL    HW111310   5.478   5.311   0.197  0.5633  0.4729  0.3245
 2828SOL    HW211311   5.459   5.165   0.233  0.7257  0.5890  0.8816
 2828SOL     MW11312   5.429   5.247   0.231  0.2959  0.4256 -0.1317
 2829SOL     OW11313   3.288   1.653   3.421  0.0448  0.5015  0.0138
 2829SOL    HW111314   3.268   1.727   3.365 -0.5373  0.4361  0.1320
 2829SOL    HW211315   3.209   1.640   3.474  1.5098  2.4671  3.0023
 2829SOL     MW11316   3.275   1.661   3.421  0.1578  0.7448  0.4115
 2830SOL     OW11317   3.575   0.262   5.188 -0.0767 -0.5202 -0.2594
 2830SOL    HW111318   3.486   0.265   5.153 -0.0758 -0.1484 -0.2372
 2830SOL    HW211319   3.572   0.193   5.254 -0.8300  0.6529  1.0109
 2830SOL     MW11320   3.563   0.254   5.192 -0.1730 -0.3224 -0.0939
 2831SOL     OW11321   2.399   1.826   4.021  0.0052 -0.4769 -0.1895
 2831SOL    HW111322   2.402   1.773   3.942  0.6935 -0.5998 -0.0897
 2831SOL    HW211323   2.306   1.842   4.036 -0.1613 -0.9467 -0.6910
 2831SOL     MW11324   2.387   1.821   4.013  0.0720 -0.5527 -0.2410
 2832SOL     OW11325   3.597   0.212   1.609  0.0201  0.7621 -0.4208
 2832SOL    HW111326   3.587   0.123   1.642  0.7090  1.0363  0.5917
 2832SOL    HW211327   3.637   0.202   1.523 -0.3057  0.0816 -0.4944
 2832SOL     MW11328   3.601   0.199   1.602  0.0666  0.7101 -0.3006
 2833SOL     OW11329   0.965   2.212   0.656 -0.0476 -0.0503  0.1413
 2833SOL    HW111330   0.990   2.119   0.655  0.1751 -0.0481 -2.4604
 2833SOL    HW211331   1.039   2.256   0.698 -0.2781 -1.0493  1.6551
 2833SOL     MW11332   0.978   2.205   0.661 -0.0486 -0.1779  0.0020
 2834SOL     OW11333   3.617   2.554   2.662 -0.2754 -0.5688  0.8973
 2834SOL    HW111334   3.571   2.528   2.742 -3.0152 -1.6247 -0.8686
 2834SOL    HW211335   3.561   2.523   2.591  0.8099  2.3779 -1.4772
 2834SOL     MW11336   3.604   2.547   2.663 -0.4872 -0.3268  0.3673
 2835SOL     OW11337   2.266   0.250   3.364  0.3643 -0.0401  0.4169
 2835SOL    HW111338   2.236   0.305   3.437 -3.0951 -1.6320  0.3898
 2835SOL    HW211339   2.242   0.300   3.286 -0.2589 -0.3462  0.4036
 2835SOL     MW11340   2.259   0.264   3.364 -0.1583 -0.2831  0.4117
 2836SOL     OW11341   4.081   0.074   0.162 -0.5611  0.3368  0.2643
 2836SOL    HW111342   4.032   0.009   0.212  1.6278 -0.7091  1.1549
 2836SOL    HW211343   4.109   0.027   0.083 -0.4280  0.7254  0.0772
 2836SOL     MW11344   4.078   0.059   0.158 -0.2638  0.2526  0.3544
 2837SOL     OW11345   5.415   2.919   4.399 -0.5085  0.5760  0.0165
 2837SOL    HW111346   5.488   2.862   4.421 -1.0012 -1.3050 -2.7242
 2837SOL    HW211347   5.342   2.886   4.453 -0.3339 -0.2483 -0.2312
 2837SOL     MW11348   5.415   2.907   4.409 -0.5492  0.2297 -0.3660
 2838SOL     OW11349   1.072   0.412   3.031  0.3779 -0.5884 -0.0304
 2838SOL    HW111350   0.987   0.431   2.992  0.1143 -1.7920 -0.0902
 2838SOL    HW211351   1.052   0.364   3.112  0.9904 -1.3418 -0.3046
 2838SOL     MW11352   1.059   0.408   3.036  0.4226 -0.8389 -0.0732
 2839SOL     OW11353   5.202   3.137   4.964 -0.2898 -0.2345  0.2059
 2839SOL    HW111354   5.241   3.224   4.963 -1.3213  0.2390 -0.3057
 2839SOL    HW211355   5.212   3.105   4.875 -0.7720 -0.2314  0.1461
 2839SOL     MW11356   5.208   3.144   4.953 -0.4835 -0.1734  0.1327
 2840SOL     OW11357   2.671   0.717   0.390  0.3689 -0.0782 -0.0576
 2840SOL    HW111358   2.750   0.728   0.337  0.9843  0.2588  0.9001
 2840SOL    HW211359   2.655   0.803   0.427 -0.6616 -0.0597 -0.5104
 2840SOL     MW11360   2.679   0.729   0.388  0.3158 -0.0327  0.0070
 2841SOL     OW11361   2.755   5.326   5.235 -0.1324 -0.2747  0.3556
 2841SOL    HW111362   2.817   5.310   5.306  0.5960 -3.2669 -0.7960
 2841SOL    HW211363   2.787   5.272   5.162 -1.9404  1.1096 -1.5996
 2841SOL     MW11364   2.767   5.317   5.234 -0.2706 -0.4805 -0.0421
 2842SOL     OW11365   0.122   0.567   2.479  0.7859 -0.2111 -0.2636
 2842SOL    HW111366   0.130   0.540   2.388  0.0016 -0.3582 -0.2984
 2842SOL    HW211367   0.032   0.546   2.502  0.3577  1.6674 -0.0601
 2842SOL     MW11368   0.111   0.561   2.470  0.6307  0.0105 -0.2420
 2843SOL     OW11369   1.395   4.260   0.039 -0.2140 -0.0719  0.6812
 2843SOL    HW111370   1.350   4.344   0.028  1.6549  0.9812  0.5204
 2843SOL    HW211371   1.416   4.233  -0.050 -0.2877 -0.4151  0.7680
 2843SOL     MW11372   1.392   4.267   0.026  0.0158  0.0190  0.6717
 2844SOL     OW11373   1.820   0.329   0.907  0.3648 -0.0463  0.5819
 2844SOL    HW111374   1.908   0.344   0.872  0.8773 -1.9313  0.9525
 2844SOL    HW211375   1.771   0.292   0.834 -0.5508  2.1729 -0.0029
 2844SOL     MW11376   1.825   0.326   0.893  0.3132 -0.0036  0.5544
 2845SOL     OW11377   0.564   3.542   5.359 -0.5428 -0.3465 -0.4254
 2845SOL    HW111378   0.644   3.509   5.317 -0.9868 -1.3053 -0.5260
 2845SOL    HW211379   0.579   3.530   5.453 -0.7853 -1.0461 -0.4706
 2845SOL     MW11380   0.576   3.536   5.366 -0.6307 -0.5588 -0.4440
 2846SOL     OW11381   4.166   1.571   2.364 -0.5416 -0.0782  0.8388
 2846SOL    HW111382   4.227   1.626   2.415  0.4201  0.5620 -0.9216
 2846SOL    HW211383   4.172   1.485   2.406  0.5800  0.2985  1.5199
 2846SOL     MW11384   4.175   1.567   2.376 -0.2749  0.0520  0.7006
 2847SOL     OW11385   2.136   5.370   5.332  0.3825  0.2149  0.1226
 2847SOL    HW111386   2.201   5.426   5.374 -0.0220 -0.7183  2.1174
 2847SOL    HW211387   2.056   5.385   5.382  0.1428 -1.7320  0.3848
 2847SOL     MW11388   2.134   5.379   5.344  0.3001 -0.1538  0.4115
 2848SOL     OW11389   3.392   2.288   3.614  0.0788 -0.1690  0.1694
 2848SOL    HW111390   3.343   2.269   3.694 -1.5409 -0.1633 -0.7912
 2848SOL    HW211391   3.389   2.207   3.564 -0.5117  0.3838 -0.7003
 2848SOL     MW11392   3.386   2.275   3.618 -0.2041 -0.0975 -0.0649
 2849SOL     OW11393   1.996   1.468   3.420  0.2934  0.7229  0.3672
 2849SOL    HW111394   2.016   1.540   3.359 -1.2541  1.0584  0.1966
 2849SOL    HW211395   1.966   1.513   3.499 -1.3666  0.3085  0.0169
 2849SOL     MW11396   1.995   1.483   3.422 -0.1172  0.7128  0.3005
 2850SOL     OW11397   1.614   2.462   0.254  0.4968 -0.3759 -1.0161
 2850SOL    HW111398   1.619   2.525   0.183  0.8562  2.7183  1.5276
 2850SOL    HW211399   1.530   2.480   0.296  0.8630 -1.2028  0.1112
 2850SOL     MW11400   1.604   2.472   0.251  0.5897 -0.0857 -0.5462
 2851SOL     OW11401   4.780   5.390   3.211  0.3283 -0.1917 -0.0768
 2851SOL    HW111402   4.697   5.368   3.169  0.1571 -2.2095  1.2049
 2851SOL    HW211403   4.846   5.343   3.161  0.7586  1.3410 -1.0387
 2851SOL     MW11404   4.777   5.381   3.199  0.3614 -0.2538 -0.0359
 2852SOL     OW11405   4.498   5.270   2.472  0.2615  0.3424  0.1732
 2852SOL    HW111406   4.498   5.332   2.546  0.4741 -0.3216  0.7347
 2852SOL    HW211407   4.408   5.274   2.439  0.5052  1.6620 -0.4156
 2852SOL     MW11408   4.486   5.279   2.477  0.3199  0.4263  0.1697
 2853SOL     OW11409   0.160   1.848   2.246  0.1786  0.0903 -0.1735
 2853SOL    HW111410   0.128   1.867   2.158  0.9780 -0.2608 -0.5472
 2853SOL    HW211411   0.084   1.862   2.303 -0.4011  0.0953 -0.9401
 2853SOL     MW11412   0.146   1.852   2.242  0.2067  0.0460 -0.3195
 2854SOL     OW11413   4.582   4.022   1.365  0.2038  0.1867  0.3204
 2854SOL    HW111414   4.614   3.945   1.318 -0.0988 -0.4683  1.1629
 2854SOL    HW211415   4.527   4.068   1.301  1.1017  0.2003 -0.4681
 2854SOL     MW11416   4.579   4.018   1.350  0.2800  0.1046  0.3273
 2855SOL     OW11417   0.049   2.106   4.661 -0.0858 -0.6112  0.0094
 2855SOL    HW111418  -0.013   2.056   4.609  2.4405 -2.3987 -1.5259
 2855SOL    HW211419   0.020   2.094   4.751  0.0741 -4.6975 -0.2725
 2855SOL     MW11420   0.037   2.098   4.666  0.2581 -1.3631 -0.2233
 2856SOL     OW11421   5.466   1.776   0.796  0.8877  0.0798 -0.7123
 2856SOL    HW111422   5.487   1.795   0.704  0.6227 -0.3566 -0.8681
 2856SOL    HW211423   5.374   1.800   0.805  0.6328 -0.8092 -0.8332
 2856SOL     MW11424   5.457   1.781   0.785  0.8211 -0.0898 -0.7477
 2857SOL     OW11425   4.235   5.260   2.410  0.0629 -0.0943  0.2743
 2857SOL    HW111426   4.175   5.187   2.425  0.0131  0.0051  0.5560
 2857SOL    HW211427   4.182   5.338   2.428  0.1420  0.0099  0.0607
 2857SOL     MW11428   4.220   5.260   2.414  0.0667 -0.0682  0.2830
 2858SOL     OW11429   4.329   1.044   5.031 -0.0559  0.2593  0.0921
 2858SOL    HW111430   4.413   1.012   4.996 -0.3110 -0.0369 -0.2503
 2858SOL    HW211431   4.271   1.047   4.955 -0.0418  1.5554  0.1068
 2858SOL     MW11432   4.333   1.040   5.017 -0.0867  0.3873  0.0502
 2859SOL     OW11433   5.231   5.119   0.904 -0.5570 -0.2670 -0.2017
 2859SOL    HW111434   5.237   5.031   0.866 -1.7067 -0.5347  0.2017
 2859SOL    HW211435   5.212   5.176   0.829  2.3495  0.0232 -0.8454
 2859SOL     MW11436   5.229   5.115   0.890 -0.3321 -0.2641 -0.2324
 2860SOL     OW11437   2.720   4.810   3.541  0.4060 -0.2737  0.0750
 2860SOL    HW111438   2.758   4.826   3.628  2.2720 -1.9165 -0.3655
 2860SOL    HW211439   2.743   4.888   3.491 -0.2413  0.4627  0.8942
 2860SOL     MW11440   2.728   4.822   3.546  0.5620 -0.3898  0.1235
 2861SOL     OW11441   3.144   4.630   4.028 -0.0052 -0.1499  0.2372
 2861SOL    HW111442   3.136   4.672   3.943 -0.6673 -0.8417 -0.0559
 2861SOL    HW211443   3.070   4.665   4.079 -0.9979 -1.4599 -0.2445
 2861SOL     MW11444   3.133   4.640   4.024 -0.2171 -0.4061  0.1380
 2862SOL     OW11445   5.460   3.022   5.011  0.3464  0.3999 -0.2845
 2862SOL    HW111446   5.371   3.055   5.000  0.6953  2.0403  1.2822
 2862SOL    HW211447   5.493   3.009   4.922 -1.2583  0.2778 -0.8873
 2862SOL     MW11448   5.453   3.025   4.998  0.1857  0.5942 -0.1611
 2863SOL     OW11449   4.999   4.369   1.773  0.5771  0.0945  0.2154
 2863SOL    HW111450   4.914   4.362   1.730 -0.0209 -0.0359  1.3890
 2863SOL    HW211451   4.981   4.413   1.856  1.2821 -1.8443  1.4718
 2863SOL     MW11452   4.986   4.373   1.778  0.5908 -0.1704  0.5265
 2864SOL     OW11453   0.159   0.500   2.215 -0.2369 -0.1621 -0.3409
 2864SOL    HW111454   0.069   0.531   2.208 -0.7483 -1.3971  0.2875
 2864SOL    HW211455   0.212   0.579   2.222 -1.3114  0.5788 -0.3644
 2864SOL     MW11456   0.154   0.514   2.215 -0.4399 -0.2253 -0.2635
 2865SOL     OW11457   0.245   0.298   3.357 -0.6760 -0.3704 -0.5324
 2865SOL    HW111458   0.252   0.248   3.276 -2.2209 -0.8804 -0.3835
 2865SOL    HW211459   0.244   0.390   3.329  3.7618 -0.1721 -0.7193
 2865SOL     MW11460   0.246   0.303   3.343 -0.3056 -0.4103 -0.5373
 2866SOL     OW11461   3.749   1.389   1.520  0.2612 -0.3476  0.1886
 2866SOL    HW111462   3.815   1.390   1.590 -0.6539  1.2408  1.0778
 2866SOL    HW211463   3.749   1.298   1.489  0.5202 -1.1744  2.4238
 2866SOL     MW11464   3.757   1.378   1.525  0.1772 -0.2501  0.5885
 2867SOL     OW11465   4.669   2.185   3.566  0.2202  0.1689 -0.0459
 2867SOL    HW111466   4.667   2.115   3.630 -1.1678  0.5072  0.3145
 2867SOL    HW211467   4.642   2.144   3.484  1.5760 -0.1699 -0.3482
 2867SOL     MW11468   4.665   2.171   3.564  0.2161  0.1688 -0.0385
 2868SOL     OW11469   3.000   4.898   1.704 -0.4126 -0.0202  0.2722
 2868SOL    HW111470   3.080   4.847   1.690 -0.2112  0.3709 -0.0392
 2868SOL    HW211471   2.999   4.960   1.631 -0.1019  1.1123  1.1934
 2868SOL     MW11472   3.010   4.899   1.693 -0.3470  0.1748  0.3503
 2869SOL     OW11473   0.433   2.212   2.600  0.1244  0.0748 -0.2849
 2869SOL    HW111474   0.510   2.159   2.619  1.1011  1.6542  0.4404
 2869SOL    HW211475   0.399   2.177   2.518 -0.8725 -3.3118  1.3845
 2869SOL     MW11476   0.438   2.201   2.592  0.1218 -0.1566  0.0217
 2870SOL     OW11477   1.730   1.488   2.908  0.0574 -0.0007 -0.1351
 2870SOL    HW111478   1.673   1.560   2.880  1.6355  0.2704 -3.1449
 2870SOL    HW211479   1.797   1.530   2.963 -1.0841  0.1252  1.2043
 2870SOL     MW11480   1.732   1.502   2.911  0.1133  0.0501 -0.3489
 2871SOL     OW11481   3.832   5.247   0.504 -0.0031  0.4950  0.0593
 2871SOL    HW111482   3.853   5.161   0.540  1.1980  0.1420 -1.4013
 2871SOL    HW211483   3.737   5.255   0.515 -0.8816 -2.7344 -3.2272
 2871SOL     MW11484   3.823   5.237   0.510  0.0382  0.0364 -0.5484
 2872SOL     OW11485   2.256   1.044   0.881 -0.5009 -0.3053  0.4993
 2872SOL    HW111486   2.333   1.085   0.920 -1.4674  0.7629  1.3466
 2872SOL    HW211487   2.280   1.030   0.790  0.9204 -0.6063  0.8861
 2872SOL     MW11488   2.269   1.047   0.875 -0.4427 -0.2071  0.6573
 2873SOL     OW11489   0.619   1.181   4.734  0.2915  0.0830  0.1685
 2873SOL    HW111490   0.658   1.268   4.731  0.0281  0.1806 -1.6426
 2873SOL    HW211491   0.530   1.195   4.767  0.3996  0.4475  0.3026
 2873SOL     MW11492   0.612   1.194   4.738  0.2716  0.1422 -0.0461
 2874SOL     OW11493   2.982   4.524   0.562 -0.3475  0.0107  0.3716
 2874SOL    HW111494   2.947   4.438   0.537 -0.3977 -0.1068  0.8477
 2874SOL    HW211495   2.981   4.524   0.657  0.7999  0.0655  0.4038
 2874SOL     MW11496   2.978   4.513   0.571 -0.2070  0.0027  0.4367
 2875SOL     OW11497   2.655   4.270   0.087  0.2305  0.0058 -0.3547
 2875SOL    HW111498   2.646   4.276   0.182 -0.5099  0.6274 -0.4570
 2875SOL    HW211499   2.749   4.283   0.071  0.6295 -1.6545  0.3866
 2875SOL     MW11500   2.666   4.273   0.097  0.1868 -0.1272 -0.2729
 2876SOL     OW11501   1.317   2.803   3.816 -0.2422  0.2947 -0.2724
 2876SOL    HW111502   1.228   2.836   3.807  0.1236  1.1638 -0.8350
 2876SOL    HW211503   1.337   2.812   3.910 -0.2045  1.5621 -0.3900
 2876SOL     MW11504   1.308   2.808   3.827 -0.1905  0.5682 -0.3595
 2877SOL     OW11505   0.706   3.858   4.775  0.2229 -0.2710  0.0242
 2877SOL    HW111506   0.702   3.924   4.844 -1.1278  1.3321 -1.4749
 2877SOL    HW211507   0.774   3.890   4.716  0.0094 -0.5627 -0.3848
 2877SOL     MW11508   0.714   3.871   4.776  0.0226 -0.1031 -0.2200
 2878SOL     OW11509   3.246   0.873   3.492 -0.3393 -0.4636  0.4153
 2878SOL    HW111510   3.168   0.817   3.495 -0.5138 -0.3442 -1.0983
 2878SOL    HW211511   3.315   0.816   3.458  0.2962 -0.5953  1.8425
 2878SOL     MW11512   3.245   0.858   3.488 -0.2803 -0.4652  0.4043
 2879SOL     OW11513   2.792   4.623   3.154 -0.2518 -0.0335 -0.5600
 2879SOL    HW111514   2.733   4.639   3.080 -1.2684  0.3129  0.3067
 2879SOL    HW211515   2.849   4.700   3.156  1.4953 -1.1487 -2.4909
 2879SOL     MW11516   2.792   4.635   3.145 -0.1583 -0.1319 -0.6962
 2880SOL     OW11517   1.494   5.012   2.548  0.1566 -0.1120  0.0125
 2880SOL    HW111518   1.567   5.074   2.549 -0.8273  1.1198 -0.9549
 2880SOL    HW211519   1.450   5.025   2.632  0.3017  0.0895  0.0587
 2880SOL     MW11520   1.498   5.022   2.559  0.0492  0.0715 -0.1054
 2881SOL     OW11521   4.382   1.077   1.108  0.2040 -0.1902  0.0576
 2881SOL    HW111522   4.379   1.146   1.173  0.1660  0.6990 -0.8584
 2881SOL    HW211523   4.462   1.029   1.127  1.0885  1.1099 -0.2575
 2881SOL     MW11524   4.392   1.079   1.118  0.3123  0.0900 -0.1000
 2882SOL     OW11525   2.230   3.168   3.388 -0.2266 -0.4502  0.4271
 2882SOL    HW111526   2.210   3.161   3.295 -2.4160 -0.2543  0.8374
 2882SOL    HW211527   2.204   3.257   3.412  3.0424  0.5790  0.6853
 2882SOL     MW11528   2.224   3.179   3.379 -0.0884 -0.2934  0.5126
 2883SOL     OW11529   2.519   2.184   2.275 -0.4609  0.2767 -0.5697
 2883SOL    HW111530   2.567   2.169   2.357 -0.4125  0.4184 -0.5719
 2883SOL    HW211531   2.443   2.126   2.281  0.2739 -0.7855 -1.0451
 2883SOL     MW11532   2.515   2.174   2.287 -0.3606  0.1589 -0.6309
 2884SOL     OW11533   1.079   0.918   3.110 -0.1024  0.4703  0.0684
 2884SOL    HW111534   1.109   1.005   3.082  1.6842 -0.0226  0.2970
 2884SOL    HW211535   1.153   0.882   3.159 -0.5370 -1.4396 -0.5844
 2884SOL     MW11536   1.092   0.925   3.112  0.0706  0.1627  0.0141
 2885SOL     OW11537   5.329   4.445   4.868 -0.2474  0.9260  0.2508
 2885SOL    HW111538   5.260   4.396   4.912  0.2725 -0.8179 -0.7954
 2885SOL    HW211539   5.409   4.419   4.913  0.3507 -1.2197 -1.8528
 2885SOL     MW11540   5.330   4.436   4.879 -0.1043  0.4281 -0.1524
 2886SOL     OW11541   0.669   4.345   1.598  0.3880 -0.5186 -0.1583
 2886SOL    HW111542   0.689   4.284   1.670  1.0213  1.4254  1.4103
 2886SOL    HW211543   0.736   4.412   1.604 -1.6971  1.7055 -0.1381
 2886SOL     MW11544   0.680   4.346   1.608  0.2022  0.0150  0.0451
 2887SOL     OW11545   4.223   0.892   0.977 -0.1494  0.3563  0.0728
 2887SOL    HW111546   4.287   0.948   1.021  0.0758  0.3504 -0.2444
 2887SOL    HW211547   4.220   0.924   0.887  0.5892 -0.6389 -0.3364
 2887SOL     MW11548   4.231   0.903   0.971 -0.0260  0.2281 -0.0202
 2888SOL     OW11549   1.556   2.685   3.804 -0.0248 -0.2211 -0.7897
 2888SOL    HW111550   1.478   2.741   3.805 -0.3041 -0.5966  0.9861
 2888SOL    HW211551   1.568   2.663   3.711 -2.5066 -0.8296 -1.0266
 2888SOL     MW11552   1.547   2.690   3.792 -0.3783 -0.3471 -0.5927
 2889SOL     OW11553   4.899   4.926   5.267  0.0527  0.2392 -0.3539
 2889SOL    HW111554   4.831   4.933   5.335  0.3238  0.8482 -0.1398
 2889SOL    HW211555   4.936   5.014   5.261  0.9334 -0.1249 -0.3663
 2889SOL     MW11556   4.895   4.938   5.275  0.2001  0.2705 -0.3281
 2890SOL     OW11557   1.956   4.417   4.154 -0.2085  0.4385  0.4119
 2890SOL    HW111558   1.986   4.413   4.063 -0.2888  0.3261  0.3901
 2890SOL    HW211559   1.973   4.507   4.181 -1.0344  0.7293 -0.0054
 2890SOL     MW11560   1.962   4.428   4.146 -0.3245  0.4613  0.3557
 2891SOL     OW11561   2.264   0.282   2.986 -0.2517  0.3578 -0.1783
 2891SOL    HW111562   2.188   0.311   2.935  0.2782 -0.1282 -1.2718
 2891SOL    HW211563   2.335   0.339   2.957  0.3904 -0.8652 -1.0544
 2891SOL     MW11564   2.263   0.293   2.976 -0.1017  0.1390 -0.4305
 2892SOL     OW11565   0.736   2.253   4.988  0.1932 -0.0270 -0.6033
 2892SOL    HW111566   0.799   2.244   5.058 -0.9293  1.0017  0.5920
 2892SOL    HW211567   0.788   2.250   4.908  1.7087  0.4600  0.3270
 2892SOL     MW11568   0.751   2.252   4.986  0.2435  0.1670 -0.3312
 2893SOL     OW11569   2.705   2.895   4.890  0.7282  0.0240 -0.2464
 2893SOL    HW111570   2.701   2.990   4.879  1.1588 -0.1857 -2.5970
 2893SOL    HW211571   2.623   2.873   4.934 -1.2973  1.1145 -3.1583
 2893SOL     MW11572   2.694   2.905   4.894  0.5240  0.1367 -0.9201
 2894SOL     OW11573   2.712   3.951   5.260 -0.0024  0.1507 -0.4336
 2894SOL    HW111574   2.687   3.871   5.215 -0.1497 -0.7481  1.1736
 2894SOL    HW211575   2.795   3.977   5.221 -0.7917  0.2002 -2.1542
 2894SOL     MW11576   2.719   3.944   5.249 -0.1223  0.0420 -0.4481
 2895SOL     OW11577   3.416   2.839   3.850 -0.4110  0.4917 -0.5494
 2895SOL    HW111578   3.450   2.929   3.850  2.0709 -0.3892 -1.1888
 2895SOL    HW211579   3.387   2.825   3.760 -2.1910  1.0653 -0.1225
 2895SOL     MW11580   3.417   2.849   3.838 -0.3212  0.4524 -0.5766
 2896SOL     OW11581   0.738   4.306   0.783  0.1156 -0.3296  0.1967
 2896SOL    HW111582   0.783   4.254   0.850 -0.2239 -1.7680 -0.6557
 2896SOL    HW211583   0.660   4.340   0.828  0.1427 -0.8760  0.6749
 2896SOL     MW11584   0.734   4.304   0.797  0.0756 -0.5837  0.1488
 2897SOL     OW11585   1.721   3.381   4.969 -0.2923  0.4261 -0.2737
 2897SOL    HW111586   1.743   3.295   5.004  2.2970  0.5665 -1.3528
 2897SOL    HW211587   1.642   3.366   4.917 -2.3885 -0.3816  2.8535
 2897SOL     MW11588   1.714   3.368   4.967 -0.2292  0.3407 -0.0115
 2898SOL     OW11589   4.053   1.320   5.004  0.2166 -0.0382  0.4447
 2898SOL    HW111590   4.067   1.323   5.099 -0.3853  0.9711  0.5199
 2898SOL    HW211591   3.964   1.285   4.995  0.5171 -0.7675  0.2129
 2898SOL     MW11592   4.043   1.316   5.015  0.1780 -0.0024  0.4247
 2899SOL     OW11593   1.712   0.581   0.941  0.4233 -0.0246 -0.4987
 2899SOL    HW111594   1.695   0.576   0.847 -1.1417 -0.3192 -0.2174
 2899SOL    HW211595   1.764   0.502   0.960 -1.0099 -1.0656 -0.7800
 2899SOL     MW11596   1.717   0.570   0.931  0.0395 -0.1956 -0.4987
 2900SOL     OW11597   0.442   2.173   4.966 -0.3739 -0.9234 -0.1104
 2900SOL    HW111598   0.426   2.165   4.872 -1.4612  1.0063 -0.1528
 2900SOL    HW211599   0.528   2.214   4.972 -1.3648  1.3923 -0.4361
 2900SOL     MW11600   0.451   2.178   4.954 -0.6399 -0.3799 -0.1575
 2901SOL     OW11601   4.215   1.066   4.765 -0.2583 -0.6360 -0.0706
 2901SOL    HW111602   4.182   0.986   4.724  0.6789 -0.6416 -0.8595
 2901SOL    HW211603   4.277   1.102   4.701  0.3705 -0.0071  0.8563
 2901SOL     MW11604   4.219   1.060   4.751 -0.0578 -0.5562 -0.0529
 2902SOL     OW11605   0.964   0.351   4.722 -0.2960  0.5580 -0.1997
 2902SOL    HW111606   1.044   0.352   4.670 -0.5150  2.1340 -0.5583
 2902SOL    HW211607   0.939   0.443   4.730 -0.5457  0.3612  2.2806
 2902SOL     MW11608   0.971   0.363   4.716 -0.3560  0.7346  0.0719
 2903SOL     OW11609   5.226   1.156   1.012 -0.1793  0.0933  0.5521
 2903SOL    HW111610   5.177   1.154   1.094 -1.2218 -1.3557 -0.0599
 2903SOL    HW211611   5.159   1.154   0.944  0.6891  0.5527 -0.3350
 2903SOL     MW11612   5.211   1.155   1.014 -0.2016 -0.0334  0.3602
 2904SOL     OW11613   3.477   1.818   0.728 -0.3192  0.4803  0.0618
 2904SOL    HW111614   3.411   1.878   0.693  0.2944  0.8345 -0.4956
 2904SOL    HW211615   3.536   1.802   0.655 -0.2582 -0.5017  0.3219
 2904SOL     MW11616   3.476   1.824   0.714 -0.2328  0.4000  0.0237
 2905SOL     OW11617   3.465   4.202   1.128 -0.4232  0.0055 -0.1448
 2905SOL    HW111618   3.404   4.171   1.194  0.5290  0.6474  1.0673
 2905SOL    HW211619   3.416   4.197   1.046 -1.9681  0.1557  0.7330
 2905SOL     MW11620   3.451   4.197   1.126 -0.4990  0.1069  0.1228
 2906SOL     OW11621   2.172   2.639   4.291  0.3788  0.1981  0.3962
 2906SOL    HW111622   2.217   2.712   4.334  0.5576 -0.1977  0.8960
 2906SOL    HW211623   2.208   2.561   4.334  1.3446 -0.2765 -1.1767
 2906SOL     MW11624   2.183   2.639   4.302  0.5253  0.0867  0.2588
 2907SOL     OW11625   4.264   1.312   3.416  0.2600  0.5742  0.8410
 2907SOL    HW111626   4.297   1.393   3.455  1.7344  0.5859 -0.3249
 2907SOL    HW211627   4.341   1.273   3.374 -0.4893 -1.2786  1.0926
 2907SOL     MW11628   4.278   1.317   3.416  0.3528  0.3385  0.7239
 2908SOL     OW11629   2.973   5.145   2.449  1.1349 -0.4608  1.0692
 2908SOL    HW111630   2.922   5.111   2.375  0.6841 -2.0016  2.0315
 2908SOL    HW211631   3.032   5.209   2.410  0.6273 -0.9325 -0.5663
 2908SOL     MW11632   2.974   5.149   2.434  1.0122 -0.7184  0.9830
 2909SOL     OW11633   3.670   3.729   4.511 -0.6912 -0.4356  0.4948
 2909SOL    HW111634   3.575   3.714   4.512 -0.6645 -0.7501 -0.6323
 2909SOL    HW211635   3.680   3.811   4.462 -0.3312 -0.9018 -0.2317
 2909SOL     MW11636   3.659   3.738   4.505 -0.6417 -0.5355  0.2575
 2910SOL     OW11637   0.440   2.751   2.558 -0.5760  0.5891 -0.2235
 2910SOL    HW111638   0.425   2.661   2.529  0.6591  0.6188 -0.9915
 2910SOL    HW211639   0.408   2.805   2.486  0.1255  0.7211 -0.4422
 2910SOL     MW11640   0.434   2.747   2.545 -0.3281  0.6098 -0.3498
 2911SOL     OW11641   1.220   0.473   5.017 -0.2693 -0.1273  0.0331
 2911SOL    HW111642   1.276   0.417   4.965 -0.9499  0.0051 -0.8614
 2911SOL    HW211643   1.277   0.544   5.046 -0.0912  0.3345 -1.3700
 2911SOL     MW11644   1.234   0.475   5.014 -0.3336 -0.0512 -0.2611
 2912SOL     OW11645   2.499   4.916   4.626  0.0500  0.4721 -0.1431
 2912SOL    HW111646   2.420   4.862   4.628  0.0975  0.3978  1.3183
 2912SOL    HW211647   2.471   4.999   4.588 -0.5126  0.1272 -0.4910
 2912SOL     MW11648   2.486   4.919   4.621 -0.0159  0.4184 -0.0005
 2913SOL     OW11649   2.378   4.560   4.020  0.0540  0.4908 -0.0000
 2913SOL    HW111650   2.288   4.568   3.989  0.7360  0.8320 -2.0643
 2913SOL    HW211651   2.408   4.475   3.987  0.6043  0.5455  0.3341
 2913SOL     MW11652   2.371   4.551   4.012  0.2117  0.5415 -0.2215
 2914SOL     OW11653   1.453   3.546   2.442  0.0437 -0.6298  0.7901
 2914SOL    HW111654   1.388   3.512   2.504 -0.6053 -1.1177 -0.1096
 2914SOL    HW211655   1.441   3.640   2.444 -1.0861 -0.7443  0.2590
 2914SOL     MW11656   1.443   3.553   2.450 -0.1840 -0.7069  0.6069
 2915SOL     OW11657   5.438   1.069   3.544  0.0699 -0.0484  0.1399
 2915SOL    HW111658   5.402   1.134   3.483 -1.7441 -0.9549  0.1825
 2915SOL    HW211659   5.455   0.992   3.490 -0.5154 -0.4895  0.5730
 2915SOL     MW11660   5.436   1.068   3.529 -0.2372 -0.2209  0.2008
 2916SOL     OW11661   3.271   4.137   4.300  0.1071  0.3729 -0.1377
 2916SOL    HW111662   3.283   4.097   4.214 -2.9112  1.1080 -1.0563
 2916SOL    HW211663   3.324   4.217   4.298  1.8698 -0.7593 -0.3703
 2916SOL     MW11664   3.279   4.142   4.289 -0.0536  0.3221 -0.2851
 2917SOL     OW11665   4.208   2.365   1.804 -0.3130  0.0261  0.3040
 2917SOL    HW111666   4.238   2.445   1.760  0.6037 -1.2376 -1.4733
 2917SOL    HW211667   4.288   2.325   1.838 -0.3480 -1.5283 -1.2929
 2917SOL     MW11668   4.222   2.370   1.803 -0.2001 -0.3346 -0.1280
 2918SOL     OW11669   3.148   0.040   1.906 -0.5877  0.5586  0.6704
 2918SOL    HW111670   3.225  -0.015   1.923  0.8270  1.8868 -1.0817
 2918SOL    HW211671   3.076  -0.007   1.947  0.8652 -1.6178  0.9017
 2918SOL     MW11672   3.149   0.027   1.914 -0.2206  0.4500  0.4757
 2919SOL     OW11673   3.188   2.843   2.970 -0.0591  0.4285  0.2283
 2919SOL    HW111674   3.146   2.790   2.902  1.9230  0.6673 -1.2696
 2919SOL    HW211675   3.224   2.779   3.032 -1.0938  0.1849  0.6008
 2919SOL     MW11676   3.187   2.828   2.969  0.0621  0.4279  0.0842
 2920SOL     OW11677   0.869   2.292   2.514  0.4648  0.3186 -0.2429
 2920SOL    HW111678   0.904   2.349   2.583  2.1308  0.7239 -1.3605
 2920SOL    HW211679   0.838   2.353   2.447  0.3660 -0.0822 -0.5628
 2920SOL     MW11680   0.869   2.307   2.515  0.6655  0.3192 -0.4269
 2921SOL     OW11681   0.569   4.526   5.051 -0.5010 -0.0814  0.5242
 2921SOL    HW111682   0.476   4.547   5.050 -1.0195 -2.1106  1.1132
 2921SOL    HW211683   0.572   4.430   5.044  1.4993 -0.1430  1.5148
 2921SOL     MW11684   0.558   4.516   5.050 -0.3113 -0.3490  0.7264
 2922SOL     OW11685   4.565   1.142   2.865 -0.3773  0.3220 -0.0782
 2922SOL    HW111686   4.643   1.192   2.840 -0.3078  0.1207 -0.2695
 2922SOL    HW211687   4.599   1.056   2.889 -0.7507 -0.5229 -2.3864
 2922SOL     MW11688   4.580   1.137   2.865 -0.4162  0.1881 -0.3981
 2923SOL     OW11689   3.594   4.447   1.733 -0.0531  0.2851 -0.0419
 2923SOL    HW111690   3.578   4.488   1.818  0.5169 -1.3492  0.9114
 2923SOL    HW211691   3.685   4.467   1.714  0.6310 -1.4851  1.0559
 2923SOL     MW11692   3.604   4.455   1.742  0.1075 -0.1507  0.2207
 2924SOL     OW11693   3.239   3.104   0.160 -0.1281 -0.6764  0.2404
 2924SOL    HW111694   3.222   3.154   0.080  1.5853 -0.0118  0.2584
 2924SOL    HW211695   3.324   3.062   0.145  0.0199 -0.8906  1.5314
 2924SOL     MW11696   3.248   3.105   0.148  0.1102 -0.6187  0.4079
 2925SOL     OW11697   1.691   3.860   2.744  0.2691  0.2826  0.0540
 2925SOL    HW111698   1.668   3.788   2.802 -2.1024 -1.9715 -3.2794
 2925SOL    HW211699   1.670   3.939   2.794 -0.5786 -1.4230  2.6043
 2925SOL     MW11700   1.685   3.861   2.758 -0.1430 -0.2243 -0.0463
 2926SOL     OW11701   0.285   4.451   1.229  0.4354  0.1980 -0.1178
 2926SOL    HW111702   0.368   4.423   1.267  0.1065  1.0089  1.2613
 2926SOL    HW211703   0.262   4.530   1.277 -2.4699 -1.4436  1.4539
 2926SOL     MW11704   0.293   4.457   1.240  0.0214  0.0916  0.2600
 2927SOL     OW11705   1.997   1.053   0.506 -0.8901  0.2409  0.1555
 2927SOL    HW111706   2.009   0.993   0.580 -1.8269 -2.6090 -1.8264
 2927SOL    HW211707   1.904   1.077   0.510 -1.0904 -0.4160 -0.4128
 2927SOL     MW11708   1.987   1.048   0.516 -1.0356 -0.2080 -0.1710
 2928SOL     OW11709   4.150   1.998   4.832  0.6430  0.0307 -0.1570
 2928SOL    HW111710   4.101   2.058   4.887 -0.0507 -0.3327 -0.3703
 2928SOL    HW211711   4.204   1.947   4.893 -1.2995 -1.4902  0.3887
 2928SOL     MW11712   4.151   1.999   4.846  0.3056 -0.2105 -0.1145
 2929SOL     OW11713   0.807   0.511   5.390  0.1047 -0.0201 -0.2564
 2929SOL    HW111714   0.772   0.542   5.474 -1.4407  0.9161 -1.1969
 2929SOL    HW211715   0.876   0.450   5.414 -1.0245 -0.6095  1.7043
 2929SOL     MW11716   0.811   0.507   5.404 -0.2377  0.0243 -0.1258
 2930SOL     OW11717   5.353   1.964   4.500 -0.1481 -0.7171 -0.1973
 2930SOL    HW111718   5.370   1.878   4.463 -0.7356 -0.9907  0.1568
 2930SOL    HW211719   5.347   2.022   4.424  2.2798 -0.5951 -0.3513
 2930SOL     MW11720   5.354   1.961   4.486  0.0875 -0.7365 -0.1717
 2931SOL     OW11721   2.951   3.226   5.444 -0.2833 -0.0917 -0.2831
 2931SOL    HW111722   3.046   3.238   5.441 -0.4303  1.0079 -1.2183
 2931SOL    HW211723   2.921   3.289   5.510 -0.4266  0.0614 -0.4931
 2931SOL     MW11724   2.960   3.235   5.452 -0.3205  0.0687 -0.4297
 2932SOL     OW11725   0.020   2.915   1.353 -0.1093 -0.1444 -0.0742
 2932SOL    HW111726   0.044   2.975   1.282 -2.4457  1.3462  0.3162
 2932SOL    HW211727  -0.064   2.879   1.327 -0.3037 -0.7233  1.2598
 2932SOL     MW11728   0.012   2.918   1.341 -0.4333 -0.0277  0.1466
 2933SOL     OW11729   3.281   0.458   0.152 -0.9505 -0.5510  0.0165
 2933SOL    HW111730   3.221   0.532   0.150 -0.0723  0.1865  0.1540
 2933SOL    HW211731   3.342   0.478   0.223 -0.4352 -1.1843 -0.2309
 2933SOL     MW11732   3.281   0.470   0.160 -0.7721 -0.5376  0.0024
 2934SOL     OW11733   4.749   4.384   1.670  0.1814 -0.5996  0.4466
 2934SOL    HW111734   4.743   4.377   1.575 -0.9655  2.8138  0.1250
 2934SOL    HW211735   4.660   4.401   1.699  0.6625 -0.5799  2.0402
 2934SOL     MW11736   4.737   4.385   1.661  0.0961 -0.1601  0.6094
 2935SOL     OW11737   4.847   2.599   0.378 -0.1896  0.5659  0.4106
 2935SOL    HW111738   4.841   2.513   0.338 -1.3139  0.8877 -0.1456
 2935SOL    HW211739   4.932   2.633   0.350  0.8513 -0.8488  1.6733
 2935SOL     MW11740   4.857   2.592   0.370 -0.2003  0.4260  0.5010
 2936SOL     OW11741   0.797   0.455   3.055 -0.3993  0.1272  0.0128
 2936SOL    HW111742   0.809   0.517   3.127 -1.2084  0.5961 -0.2435
 2936SOL    HW211743   0.731   0.496   2.999  1.3965  0.5467 -1.8809
 2936SOL     MW11744   0.790   0.468   3.057 -0.2730  0.2409 -0.2625
 2937SOL     OW11745   2.625   2.155   5.091  0.5144  0.0388 -0.2637
 2937SOL    HW111746   2.604   2.062   5.098  0.3014  0.1108  0.0807
 2937SOL    HW211747   2.694   2.169   5.156 -0.4892  0.4201  0.7633
 2937SOL     MW11748   2.631   2.145   5.100  0.3586  0.0968 -0.0881
 2938SOL     OW11749   1.793   4.541   1.186  0.6008  0.4116  0.0176
 2938SOL    HW111750   1.755   4.457   1.209  0.2269  0.9741  1.5681
 2938SOL    HW211751   1.721   4.590   1.146  0.3289  0.6165  0.7451
 2938SOL     MW11752   1.779   4.537   1.184  0.5182  0.5099  0.3092
 2939SOL     OW11753   2.149   0.398   4.488  0.0694 -0.0806 -0.1337
 2939SOL    HW111754   2.194   0.327   4.534  0.0811 -0.5408 -0.8465
 2939SOL    HW211755   2.203   0.475   4.506 -0.0020 -0.2249  0.7351
 2939SOL     MW11756   2.162   0.399   4.496  0.0617 -0.1580 -0.1137
 2940SOL     OW11757   2.399   4.491   2.664 -0.1616  0.4486 -0.3447
 2940SOL    HW111758   2.404   4.412   2.611 -1.4247  0.5147 -0.5962
 2940SOL    HW211759   2.320   4.536   2.633 -0.5330  0.8411  1.0949
 2940SOL     MW11760   2.389   4.487   2.653 -0.3708  0.5073 -0.1926
 2941SOL     OW11761   2.661   0.930   0.065 -0.2275 -0.2047 -0.0979
 2941SOL    HW111762   2.663   1.020   0.097 -0.2985  0.5110 -2.0041
 2941SOL    HW211763   2.572   0.899   0.087 -0.8111  0.7954 -0.9672
 2941SOL     MW11764   2.650   0.937   0.072 -0.3113  0.0149 -0.4532
 2942SOL     OW11765   4.657   0.916   3.197 -0.5075 -0.2110  0.3789
 2942SOL    HW111766   4.638   0.915   3.103 -1.4775  1.3507  0.5244
 2942SOL    HW211767   4.730   0.854   3.207 -0.9750 -1.0950 -1.2552
 2942SOL     MW11768   4.664   0.908   3.186 -0.6915 -0.1242  0.1883
 2943SOL     OW11769   2.084   3.080   3.121 -0.4308  0.0954  0.6165
 2943SOL    HW111770   2.067   3.074   3.027 -0.2394 -1.0158  0.6486
 2943SOL    HW211771   2.096   3.174   3.137  0.0632  0.2477 -0.5585
 2943SOL     MW11772   2.083   3.092   3.111 -0.3430 -0.0274  0.4702
 2944SOL     OW11773   2.331   3.038   0.869 -0.4007  0.0890 -0.1732
 2944SOL    HW111774   2.250   3.053   0.819  0.6667  0.0028 -2.0379
 2944SOL    HW211775   2.346   3.120   0.916 -1.8149 -0.0683  0.6045
 2944SOL     MW11776   2.323   3.050   0.868 -0.4451  0.0578 -0.3123
 2945SOL     OW11777   4.550   2.827   0.067  0.4262 -0.2220 -0.0330
 2945SOL    HW111778   4.518   2.915   0.087  0.4836 -0.5668  1.7664
 2945SOL    HW211779   4.641   2.840   0.039  0.1313  0.3541 -0.7644
 2945SOL     MW11780   4.558   2.840   0.066  0.3958 -0.1924  0.1037
 2946SOL     OW11781   5.241   4.112   5.219 -0.3489  0.7679 -0.5559
 2946SOL    HW111782   5.251   4.195   5.267  1.6555  0.6462 -0.6681
 2946SOL    HW211783   5.328   4.094   5.185 -1.2475 -0.2820 -2.4376
 2946SOL     MW11784   5.253   4.121   5.221 -0.2073  0.6179 -0.8112
 2947SOL     OW11785   2.354   3.744   4.159  0.5979  1.1308  0.3600
 2947SOL    HW111786   2.291   3.810   4.189  0.3445  0.3163  1.7113
 2947SOL    HW211787   2.429   3.755   4.217  0.8650  0.7479  0.0852
 2947SOL     MW11788   2.355   3.754   4.171  0.5996  0.9775  0.4978
 2948SOL     OW11789   3.790   2.391   2.897  0.1022 -0.2984  0.6823
 2948SOL    HW111790   3.746   2.476   2.904 -2.3648 -1.3708 -0.6670
 2948SOL    HW211791   3.727   2.328   2.931 -0.0485 -2.0925 -2.5389
 2948SOL     MW11792   3.777   2.394   2.902 -0.2329 -0.6653  0.0972
 2949SOL     OW11793   2.988   1.321   2.938  0.0869 -0.2591  0.1453
 2949SOL    HW111794   3.002   1.348   3.028 -0.6573  1.8773 -0.3366
 2949SOL    HW211795   3.075   1.325   2.898  0.1073  0.8324  0.2659
 2949SOL     MW11796   3.001   1.325   2.944 -0.0058  0.1541  0.0991
 2950SOL     OW11797   4.560   0.886   1.675 -0.4013 -0.6693  0.0139
 2950SOL    HW111798   4.638   0.839   1.647 -0.0888 -0.9878  1.3552
 2950SOL    HW211799   4.498   0.817   1.700 -0.8280 -0.4042 -0.2881
 2950SOL     MW11800   4.562   0.871   1.675 -0.4159 -0.6762  0.1469
 2951SOL     OW11801   2.968   4.714   3.477 -0.5161  0.3718 -0.1571
 2951SOL    HW111802   2.886   4.761   3.463 -1.1028 -0.2254  1.1216
 2951SOL    HW211803   2.941   4.623   3.487  0.1031  0.3763  1.9240
 2951SOL     MW11804   2.954   4.708   3.477 -0.5120  0.2959  0.2730
 2952SOL     OW11805   4.990   3.592   3.544 -0.1290  0.5417 -0.9264
 2952SOL    HW111806   4.996   3.630   3.457  1.9508  0.5120 -0.8319
 2952SOL    HW211807   4.977   3.667   3.602  0.8825  0.8208 -1.0450
 2952SOL     MW11808   4.989   3.607   3.541  0.2667  0.5736 -0.9295
 2953SOL     OW11809   4.827   3.342   3.808  0.1761  0.5280 -0.0285
 2953SOL    HW111810   4.767   3.284   3.857  2.1133 -2.5261 -0.9946
 2953SOL    HW211811   4.861   3.402   3.874 -0.1085 -1.0221  1.6103
 2953SOL     MW11812   4.823   3.342   3.823  0.3876 -0.0614  0.0576
 2954SOL     OW11813   3.771   1.792   0.830 -0.4745  0.2357  0.4556
 2954SOL    HW111814   3.829   1.838   0.769 -2.0041  0.7629 -0.6681
 2954SOL    HW211815   3.772   1.701   0.799  0.0090  0.1678  0.6593
 2954SOL     MW11816   3.779   1.786   0.818 -0.6084  0.2945  0.3378
 2955SOL     OW11817   1.748   4.330   4.854 -0.0057  0.0770  0.0222
 2955SOL    HW111818   1.799   4.302   4.778 -2.1522  0.4097 -1.6080
 2955SOL    HW211819   1.729   4.249   4.901 -0.6431 -0.4508 -1.1076
 2955SOL     MW11820   1.752   4.316   4.851 -0.3620  0.0520 -0.3311
 2956SOL     OW11821   3.268   2.534   4.325 -0.4987  0.8578 -0.0740
 2956SOL    HW111822   3.287   2.619   4.364  1.2903  1.4478 -2.0424
 2956SOL    HW211823   3.278   2.548   4.231 -1.8442 -1.1539 -0.5858
 2956SOL     MW11824   3.271   2.546   4.318 -0.4419  0.6758 -0.3915
 2957SOL     OW11825   5.365   2.292   0.701  0.0981  0.2393  0.4475
 2957SOL    HW111826   5.308   2.233   0.651  0.1569  0.7494 -0.2424
 2957SOL    HW211827   5.433   2.236   0.736 -0.2977 -0.2305  0.4805
 2957SOL     MW11828   5.366   2.278   0.699  0.0550  0.2444  0.3634
 2958SOL     OW11829   2.967   1.307   5.095  0.5958  0.3653  0.2429
 2958SOL    HW111830   2.972   1.291   5.001  0.2106 -1.8202  0.5311
 2958SOL    HW211831   2.912   1.385   5.104 -0.5997 -0.2598 -1.2859
 2958SOL     MW11832   2.961   1.315   5.084  0.3934  0.0055  0.0841
 2959SOL     OW11833   4.169   2.499   0.277  0.4571 -0.6485 -0.4138
 2959SOL    HW111834   4.259   2.494   0.307  0.5573  1.5810 -0.1178
 2959SOL    HW211835   4.119   2.526   0.354 -0.5589 -2.1898 -0.4796
 2959SOL     MW11836   4.174   2.502   0.291  0.3399 -0.5604 -0.3843
 2960SOL     OW11837   1.368   4.671   4.437  0.1211 -0.0630  0.4466
 2960SOL    HW111838   1.372   4.583   4.475  0.0774 -0.0986  0.3687
 2960SOL    HW211839   1.291   4.711   4.478 -0.5745 -0.4866 -0.4266
 2960SOL     MW11840   1.359   4.665   4.447  0.0264 -0.1217  0.3249
 2961SOL     OW11841   3.358   1.415   1.573 -0.0147  0.0513 -0.6409
 2961SOL    HW111842   3.437   1.454   1.611  0.1197  1.8445 -2.5637
 2961SOL    HW211843   3.286   1.468   1.607 -0.4477 -1.4967  1.0003
 2961SOL     MW11844   3.359   1.427   1.582 -0.0529  0.0826 -0.6769
 2962SOL     OW11845   2.789   4.915   3.778  0.6647 -0.2225  0.0664
 2962SOL    HW111846   2.820   5.004   3.758  0.3285 -0.5221 -2.0182
 2962SOL    HW211847   2.694   4.920   3.765  0.6898 -0.9632 -0.4279
 2962SOL     MW11848   2.781   4.927   3.774  0.6249 -0.3556 -0.2637
 2963SOL     OW11849   0.776   1.128   1.494  0.0513 -0.0765 -0.3939
 2963SOL    HW111850   0.716   1.130   1.419 -1.3707 -0.2309  0.6942
 2963SOL    HW211851   0.749   1.051   1.544 -0.7529  1.4248  1.6068
 2963SOL     MW11852   0.765   1.118   1.491 -0.2337  0.0959  0.0015
 2964SOL     OW11853   3.954   3.610   5.195 -0.3448  0.1320  0.6672
 2964SOL    HW111854   4.001   3.677   5.144 -0.3167 -0.1445  0.3228
 2964SOL    HW211855   3.876   3.655   5.227 -2.0723 -0.4508 -2.2903
 2964SOL     MW11856   3.950   3.625   5.192 -0.5623  0.0220  0.2445
 2965SOL     OW11857   2.764   4.261   4.778  0.0127  0.0427 -0.3023
 2965SOL    HW111858   2.740   4.303   4.695  0.2860  1.0914  0.1278
 2965SOL    HW211859   2.850   4.224   4.763 -1.4088 -3.0920 -1.6269
 2965SOL     MW11860   2.772   4.262   4.766 -0.1343 -0.2243 -0.4168
 2966SOL     OW11861   1.682   4.081   2.888 -0.1359 -0.2815  0.0107
 2966SOL    HW111862   1.740   4.127   2.827 -3.0376  2.1482 -1.1635
 2966SOL    HW211863   1.720   4.097   2.974  0.1056  2.6868 -0.5624
 2966SOL     MW11864   1.695   4.089   2.891 -0.4764  0.4095 -0.2130
 2967SOL     OW11865   2.420   0.186   4.336 -0.0722 -0.5926  0.0690
 2967SOL    HW111866   2.381   0.100   4.322 -1.3350 -0.0178 -0.0834
 2967SOL    HW211867   2.514   0.172   4.325 -0.2252 -2.0041  0.3403
 2967SOL     MW11868   2.427   0.173   4.333 -0.2534 -0.6997  0.0842
 2968SOL     OW11869   1.917   0.143   3.536  0.2135 -0.2109 -0.6810
 2968SOL    HW111870   1.870   0.144   3.619  1.9843  1.8735  0.3982
 2968SOL    HW211871   1.849   0.152   3.469 -1.4440 -3.6911  0.3067
 2968SOL     MW11872   1.903   0.144   3.538  0.2280 -0.3895 -0.4165
 2969SOL     OW11873   2.675   4.567   2.668 -0.0420 -0.0205  0.4651
 2969SOL    HW111874   2.580   4.562   2.673 -0.2229  1.3503 -0.9402
 2969SOL    HW211875   2.693   4.593   2.578  1.5560  1.8375  1.2462
 2969SOL     MW11876   2.665   4.569   2.657  0.1394  0.3928  0.3852
 2970SOL     OW11877   4.616   2.761   0.341 -0.5209  0.0897  0.2930
 2970SOL    HW111878   4.608   2.785   0.248 -0.0109 -0.1914  0.1683
 2970SOL    HW211879   4.702   2.718   0.346 -1.5886 -2.1751  0.3895
 2970SOL     MW11880   4.626   2.758   0.330 -0.5923 -0.2362  0.2894
 2971SOL     OW11881   0.456   1.735   0.418  0.0283  0.5408  0.2683
 2971SOL    HW111882   0.425   1.652   0.456  2.6203 -0.2131  0.9220
 2971SOL    HW211883   0.378   1.791   0.416 -1.4851 -1.4136  1.1538
 2971SOL     MW11884   0.442   1.731   0.422  0.1664  0.1941  0.4653
 2972SOL     OW11885   1.542   3.556   3.166  0.8320  0.5020 -0.1909
 2972SOL    HW111886   1.629   3.538   3.202  0.9542 -0.0080 -0.7114
 2972SOL    HW211887   1.481   3.528   3.234  1.0364 -1.3133 -0.7026
 2972SOL     MW11888   1.545   3.550   3.179  0.8738  0.2044 -0.3230
 2973SOL     OW11889   3.891   3.866   1.001 -0.9916  0.4278 -0.0858
 2973SOL    HW111890   3.811   3.905   1.035  0.1561  2.6730  0.2548
 2973SOL    HW211891   3.936   3.831   1.078 -1.5380 -0.6871 -0.2561
 2973SOL     MW11892   3.887   3.867   1.015 -0.9146  0.5725 -0.0640
 2974SOL     OW11893   2.192   4.700   2.455 -0.3303  0.2767  0.1065
 2974SOL    HW111894   2.186   4.793   2.435 -1.6181  0.3865  0.9030
 2974SOL    HW211895   2.266   4.669   2.403 -0.2645  1.6168 -0.6384
 2974SOL     MW11896   2.201   4.708   2.446 -0.4867  0.4623  0.1131
 2975SOL     OW11897   3.341   4.263   5.380 -0.4002  0.3723  0.8092
 2975SOL    HW111898   3.296   4.344   5.405 -1.3501 -0.7486  3.1004
 2975SOL    HW211899   3.280   4.193   5.405  0.4596 -1.0828 -0.9320
 2975SOL     MW11900   3.328   4.264   5.387 -0.4117  0.0425  0.8796
 2976SOL     OW11901   3.610   3.135   3.141 -0.1196  0.1638  0.1394
 2976SOL    HW111902   3.530   3.120   3.191 -0.0887 -1.2710 -0.1985
 2976SOL    HW211903   3.680   3.100   3.196  0.3258  1.6185  0.5343
 2976SOL     MW11904   3.609   3.129   3.154 -0.0586  0.1664  0.1467
 2977SOL     OW11905   4.370   0.136   2.003  0.4541 -0.1160  0.2361
 2977SOL    HW111906   4.436   0.170   1.942  1.0432 -0.0643  0.8872
 2977SOL    HW211907   4.288   0.140   1.954  0.9055 -0.0235 -0.5337
 2977SOL     MW11908   4.368   0.141   1.989  0.5873 -0.0976  0.2209
 2978SOL     OW11909   4.941   2.715   3.293  0.9259 -0.3647  0.0651
 2978SOL    HW111910   4.989   2.752   3.367  1.8015 -1.8214  0.2652
 2978SOL    HW211911   4.849   2.738   3.310  1.4299  2.0196 -0.0578
 2978SOL     MW11912   4.935   2.723   3.305  1.1025 -0.2459  0.0749
 2979SOL     OW11913   1.618   4.342   1.251  0.0579 -0.0829  0.0648
 2979SOL    HW111914   1.570   4.399   1.312  1.1127 -0.9403  1.7798
 2979SOL    HW211915   1.611   4.254   1.290  2.7973 -0.2818  0.2984
 2979SOL     MW11916   1.611   4.338   1.264  0.5436 -0.2181  0.3143
 2980SOL     OW11917   3.133   3.458   3.518 -0.2980  0.1036  0.1111
 2980SOL    HW111918   3.186   3.508   3.455  1.1069  0.3225  1.3942
 2980SOL    HW211919   3.135   3.511   3.598 -1.0485 -0.7285  0.7000
 2980SOL     MW11920   3.140   3.471   3.520 -0.2143  0.0251  0.3507
 2981SOL     OW11921   0.899   0.085   0.633  0.1993  0.1616  0.1380
 2981SOL    HW111922   0.944   0.003   0.613  2.3441  1.1169  0.7690
 2981SOL    HW211923   0.828   0.059   0.692  1.4588 -1.1526  1.1678
 2981SOL     MW11924   0.895   0.071   0.638  0.6351  0.1157  0.3506
 2982SOL     OW11925   1.395   3.358   1.566 -0.1618 -0.4347 -0.3053
 2982SOL    HW111926   1.395   3.262   1.570 -2.2324 -0.5352 -1.2341
 2982SOL    HW211927   1.470   3.385   1.619  0.0525 -2.5462  0.5423
 2982SOL     MW11928   1.404   3.349   1.573 -0.3994 -0.7178 -0.3157
 2983SOL     OW11929   3.364   3.019   3.286 -0.0261  0.0838 -0.0311
 2983SOL    HW111930   3.404   3.049   3.368 -1.3305 -1.0407  1.0537
 2983SOL    HW211931   3.313   3.094   3.256  0.9604  0.7246 -0.1930
 2983SOL     MW11932   3.363   3.032   3.293 -0.0668  0.0219  0.0870
 2984SOL     OW11933   2.928   4.544   0.841  0.4999 -0.2009  0.0066
 2984SOL    HW111934   2.843   4.502   0.824  0.7614 -1.1787  0.9884
 2984SOL    HW211935   2.987   4.472   0.863  0.7294  0.6697  2.6957
 2984SOL     MW11936   2.924   4.529   0.842  0.5628 -0.2147  0.4765
 2985SOL     OW11937   1.334   1.039   0.934  0.1919  0.0552  0.3645
 2985SOL    HW111938   1.346   1.128   0.903  0.0250  0.1886  0.6738
 2985SOL    HW211939   1.422   1.002   0.935  0.2474  0.1811  0.1278
 2985SOL     MW11940   1.346   1.046   0.930  0.1776  0.0884  0.3738
 2986SOL     OW11941   0.662  -0.006   1.545 -0.1726  0.1445 -0.1235
 2986SOL    HW111942   0.667   0.085   1.576  2.1463  0.1994 -0.5078
 2986SOL    HW211943   0.649   0.002   1.450 -1.3646  0.0233  0.0099
 2986SOL     MW11944   0.661   0.007   1.537 -0.0283  0.1360 -0.1556
 2987SOL     OW11945   3.762   4.909   4.141  0.0832  0.5036 -0.0834
 2987SOL    HW111946   3.668   4.917   4.153  0.2041  1.3218  0.3822
 2987SOL    HW211947   3.797   4.993   4.169  0.8290  0.7043 -1.5141
 2987SOL     MW11948   3.754   4.921   4.146  0.1941  0.6341 -0.2070
 2988SOL     OW11949   0.374   3.056   4.964 -0.5269 -0.0857 -0.0347
 2988SOL    HW111950   0.438   2.988   4.983  0.2271  0.9784  1.4451
 2988SOL    HW211951   0.424   3.123   4.917 -0.9644  0.0276 -0.3501
 2988SOL     MW11952   0.389   3.056   4.960 -0.4863  0.0650  0.1144
 2989SOL     OW11953   1.082   4.769   2.606 -0.5144  0.2341 -0.4772
 2989SOL    HW111954   1.092   4.778   2.700  0.0378 -1.4523 -0.3426
 2989SOL    HW211955   0.990   4.744   2.594 -0.6764  0.7887 -0.4309
 2989SOL     MW11956   1.072   4.767   2.616 -0.4644  0.0892 -0.4541
 2990SOL     OW11957   5.443   3.407   2.426  0.0706  0.0393  0.3584
 2990SOL    HW111958   5.384   3.355   2.480  0.1657  0.7737  1.1880
 2990SOL    HW211959   5.503   3.343   2.388 -1.2012 -0.7194 -0.4681
 2990SOL     MW11960   5.443   3.392   2.428 -0.0801  0.0362  0.3588
 2991SOL     OW11961   5.013   0.650   0.784  0.3627  0.5613  0.4186
 2991SOL    HW111962   5.032   0.586   0.852 -0.8162  0.8624  1.0523
 2991SOL    HW211963   5.005   0.598   0.704 -0.2209 -0.0508  0.8635
 2991SOL     MW11964   5.014   0.635   0.782  0.1371  0.5215  0.5567
 2992SOL     OW11965   1.876   1.605   4.660  0.0763 -0.3040 -0.6419
 2992SOL    HW111966   1.862   1.614   4.565  1.6793  1.3597 -0.7736
 2992SOL    HW211967   1.921   1.686   4.685  0.4798 -1.1070  1.3964
 2992SOL     MW11968   1.880   1.616   4.651  0.3332 -0.1938 -0.3978
 2993SOL     OW11969   2.854   3.077   2.055 -0.0649 -0.1146 -0.2455
 2993SOL    HW111970   2.858   3.137   2.130  0.3758 -0.1255 -0.2582
 2993SOL    HW211971   2.845   3.135   1.979 -1.0155 -0.1224 -0.1494
 2993SOL     MW11972   2.853   3.092   2.055 -0.1302 -0.1170 -0.2349
 2994SOL     OW11973   0.130   1.381   1.235  0.4165 -0.2699 -0.0530
 2994SOL    HW111974   0.169   1.465   1.210 -0.0230  0.2020  0.7920
 2994SOL    HW211975   0.038   1.388   1.210  0.4562 -0.6430 -0.3120
 2994SOL     MW11976   0.123   1.393   1.229  0.3653 -0.2572  0.0220
 2995SOL     OW11977   1.532   4.635   0.864 -0.0164 -0.5199  0.0759
 2995SOL    HW111978   1.593   4.678   0.925 -1.0509  1.4698 -0.1868
 2995SOL    HW211979   1.588   4.583   0.807  1.3442  0.3901  0.5193
 2995SOL     MW11980   1.547   4.634   0.865  0.0254 -0.1487  0.0990
 2996SOL     OW11981   4.798   0.180   3.162  0.5649  0.1404 -0.0233
 2996SOL    HW111982   4.799   0.218   3.249  2.3461  1.0023 -0.3605
 2996SOL    HW211983   4.780   0.087   3.176 -2.5422  0.7741  0.9218
 2996SOL     MW11984   4.796   0.173   3.175  0.3951  0.3318  0.0545
 2997SOL     OW11985   2.453   0.792   0.233  0.6037  0.2256 -0.3194
 2997SOL    HW111986   2.413   0.715   0.193 -1.9058  0.6935  1.0930
 2997SOL    HW211987   2.525   0.758   0.286 -0.6048 -1.1804  0.4546
 2997SOL     MW11988   2.457   0.778   0.234  0.1278  0.1055 -0.0395
 2998SOL     OW11989   3.990   0.535   2.143  0.1139 -0.0008 -0.2122
 2998SOL    HW111990   3.924   0.604   2.140 -0.0364 -0.0723  0.9681
 2998SOL    HW211991   4.051   0.564   2.211  0.2136 -0.8873  0.0784
 2998SOL     MW11992   3.989   0.548   2.151  0.1074 -0.1234 -0.0239
 2999SOL     OW11993   5.086   1.990   0.147 -0.2051  0.5328  0.3696
 2999SOL    HW111994   5.138   2.064   0.179 -0.9888  1.5399 -0.6369
 2999SOL    HW211995   4.996   2.022   0.146 -0.6209 -0.5870  0.3236
 2999SOL     MW11996   5.082   2.004   0.151 -0.3587  0.5184  0.2348
 3000SOL     OW11997   2.608   5.224   3.587 -0.0361  0.4216 -0.0167
 3000SOL    HW111998   2.523   5.183   3.572  0.3019  0.1732 -1.3966
 3000SOL    HW211999   2.625   5.275   3.507  1.6860 -0.5742 -0.3345
 3000SOL     MW12000   2.600   5.226   3.575  0.2276  0.2623 -0.2340
 3001SOL     OW12001   4.857   2.135   1.901 -0.1205  0.3815  0.3597
 3001SOL    HW112002   4.791   2.142   1.832  0.3919  0.3618 -0.1387
 3001SOL    HW212003   4.941   2.145   1.855  0.4295 -2.8152  0.4588
 3001SOL     MW12004   4.859   2.138   1.886  0.0155 -0.0302  0.3086
 3002SOL     OW12005   2.433   0.565   2.678 -0.0463  0.1434 -0.2234
 3002SOL    HW112006   2.386   0.566   2.595 -1.2516 -1.1027  0.3949
 3002SOL    HW212007   2.420   0.652   2.715 -2.6158 -0.3632  0.2674
 3002SOL     MW12008   2.425   0.576   2.672 -0.5295 -0.0809 -0.0814
 3003SOL     OW12009   2.143   2.182   1.676  0.4866 -0.2790  0.1139
 3003SOL    HW112010   2.182   2.265   1.703  0.1385 -0.4651  1.2442
 3003SOL    HW212011   2.109   2.199   1.588 -0.5401  1.1035  0.7488
 3003SOL     MW12012   2.144   2.195   1.668  0.3106 -0.1258  0.3399
 3004SOL     OW12013   0.720   2.119   3.289 -0.0933  0.5197  0.0243
 3004SOL    HW112014   0.709   2.179   3.215  0.4031  0.4539 -0.1060
 3004SOL    HW212015   0.708   2.031   3.251 -1.9249  0.5507  0.4133
 3004SOL     MW12016   0.717   2.115   3.275 -0.2642  0.5153  0.0574
 3005SOL     OW12017   2.626   0.835   3.192  0.1915 -0.3171 -0.3815
 3005SOL    HW112018   2.540   0.795   3.203  0.5760 -1.5729 -1.6447
 3005SOL    HW212019   2.626   0.868   3.102  2.0921 -3.2965 -1.6623
 3005SOL     MW12020   2.615   0.834   3.182  0.4840 -0.8593 -0.7072
 3006SOL     OW12021   0.011   4.788   3.567 -0.4356  0.5506  0.1782
 3006SOL    HW112022   0.058   4.869   3.587 -0.6422  0.5638  0.6337
 3006SOL    HW212023  -0.073   4.817   3.532  0.2192  0.5329 -1.5093
 3006SOL     MW12024   0.006   4.802   3.565 -0.3782  0.5500  0.0205
 3007SOL     OW12025   0.667   3.631   0.904 -0.4040  0.0463 -0.0005
 3007SOL    HW112026   0.675   3.635   0.808 -1.6053  1.5751 -0.0685
 3007SOL    HW212027   0.576   3.606   0.920 -0.2699  0.0085  0.7486
 3007SOL     MW12028   0.656   3.628   0.894 -0.5406  0.2371  0.0867
 3008SOL     OW12029   1.739   3.869   0.601  0.0461  0.3085  0.2877
 3008SOL    HW112030   1.692   3.795   0.639  0.1860 -0.4851 -1.0310
 3008SOL    HW212031   1.810   3.887   0.663 -0.2037 -0.4261  0.8017
 3008SOL     MW12032   1.742   3.862   0.614  0.0320  0.1129  0.1847
 3009SOL     OW12033   5.293   1.858   1.970  0.5080 -0.9426 -0.1918
 3009SOL    HW112034   5.246   1.919   2.026  2.5832  0.3031  0.2601
 3009SOL    HW212035   5.322   1.788   2.028  0.8151 -0.7489 -0.1103
 3009SOL     MW12036   5.291   1.857   1.984  0.8130 -0.7583 -0.1235
 3010SOL     OW12037   3.700   2.713   2.106 -0.2985  0.4535 -0.5150
 3010SOL    HW112038   3.705   2.806   2.084 -0.7607  0.6842  0.2783
 3010SOL    HW212039   3.791   2.683   2.102  0.1808  1.4607  1.2532
 3010SOL     MW12040   3.713   2.721   2.103 -0.2963  0.6120 -0.1871
 3011SOL     OW12041   2.672   4.620   2.390 -0.4405 -0.2735  0.0718
 3011SOL    HW112042   2.734   4.656   2.326 -3.3769  2.7631 -1.4255
 3011SOL    HW212043   2.669   4.527   2.371  2.4594 -0.2814 -0.7741
 3011SOL     MW12044   2.679   4.613   2.379 -0.4452  0.1142 -0.2281
 3012SOL     OW12045   3.680   2.801   2.722  0.2205  0.0323 -0.2326
 3012SOL    HW112046   3.597   2.848   2.732  0.2063  0.1447 -0.8327
 3012SOL    HW212047   3.655   2.710   2.708  0.2487 -0.1797  0.9619
 3012SOL     MW12048   3.666   2.795   2.722  0.2223  0.0195 -0.1565
 3013SOL     OW12049   4.131   2.190   2.304 -0.3309  0.0555 -0.4137
 3013SOL    HW112050   4.052   2.141   2.282  0.4551 -0.8663 -1.2645
 3013SOL    HW212051   4.157   2.157   2.389 -0.1178 -0.6075 -0.7328
 3013SOL     MW12052   4.124   2.180   2.312 -0.2030 -0.1474 -0.5634
 3014SOL     OW12053   5.400   1.297   4.642 -0.2878  0.6454 -0.2221
 3014SOL    HW112054   5.454   1.322   4.567 -1.1507 -0.1298 -1.1350
 3014SOL    HW212055   5.450   1.229   4.687  0.8545  2.0724  0.7228
 3014SOL     MW12056   5.413   1.291   4.638 -0.2520  0.7288 -0.2180
 3015SOL     OW12057   0.461   4.132   3.163  1.0375 -0.2358  0.2777
 3015SOL    HW112058   0.517   4.090   3.098 -1.0709  0.6665 -2.3177
 3015SOL    HW212059   0.443   4.218   3.126 -0.4277  0.2545  2.0006
 3015SOL     MW12060   0.466   4.138   3.150  0.5800 -0.0575  0.1660
 3016SOL     OW12061   5.170   3.465   4.374  0.0548  0.5737  0.2634
 3016SOL    HW112062   5.156   3.499   4.286 -1.0946 -1.5843 -0.4483
 3016SOL    HW212063   5.230   3.528   4.414  0.8480  1.4610 -2.1268
 3016SOL     MW12064   5.176   3.477   4.368  0.0092  0.4110 -0.1337
 3017SOL     OW12065   1.802   1.364   0.096  0.2232 -0.2572 -0.1241
 3017SOL    HW112066   1.747   1.286   0.087 -0.9289  0.6236 -1.1899
 3017SOL    HW212067   1.772   1.422   0.026  1.7675  0.7315 -0.0147
 3017SOL     MW12068   1.791   1.361   0.086  0.2734 -0.0179 -0.2465
 3018SOL     OW12069   4.530   0.651   1.022  0.2588 -0.7537 -0.2579
 3018SOL    HW112070   4.514   0.679   0.931  0.4372  0.2548  0.0152
 3018SOL    HW212071   4.570   0.727   1.064 -0.0364 -1.1364  0.7354
 3018SOL     MW12072   4.533   0.664   1.015  0.2438 -0.6736 -0.0958
 3019SOL     OW12073   4.848   3.287   3.273 -0.1715  0.1055  0.1120
 3019SOL    HW112074   4.871   3.374   3.243 -0.1895  0.1731  0.2932
 3019SOL    HW212075   4.810   3.244   3.196 -1.2906  0.6667  0.3194
 3019SOL     MW12076   4.846   3.292   3.259 -0.3171  0.1860  0.1617
 3020SOL     OW12077   2.253   4.766   4.350  0.2213  0.0868 -0.6038
 3020SOL    HW112078   2.231   4.779   4.443 -1.2515 -0.3381 -0.8610
 3020SOL    HW212079   2.337   4.721   4.352  0.1445 -0.0469  0.5373
 3020SOL     MW12080   2.261   4.762   4.362  0.0230  0.0153 -0.4907
 3021SOL     OW12081   3.942   1.967   5.143  0.2689  0.1931 -0.4626
 3021SOL    HW112082   4.008   1.898   5.133  0.4251  0.5621 -2.3243
 3021SOL    HW212083   3.958   2.027   5.070  0.1231  2.2199  1.0641
 3021SOL     MW12084   3.953   1.966   5.132  0.2702  0.4998 -0.5055
 3022SOL     OW12085   4.573   0.878   0.376 -0.2566 -0.1418 -0.0230
 3022SOL    HW112086   4.618   0.941   0.320 -1.4743  0.1453 -0.7249
 3022SOL    HW212087   4.482   0.908   0.377 -1.0374 -2.2336 -0.9258
 3022SOL     MW12088   4.567   0.890   0.369 -0.5124 -0.3728 -0.2284
 3023SOL     OW12089   4.414   3.616   1.336 -0.4099  0.1580 -0.2106
 3023SOL    HW112090   4.329   3.659   1.345 -0.1698  0.5402  0.3360
 3023SOL    HW212091   4.444   3.603   1.426  1.1660  2.2108 -0.3557
 3023SOL     MW12092   4.407   3.620   1.348 -0.1774  0.4697 -0.1592
 3024SOL     OW12093   4.631   0.045   4.542  0.4969 -0.8283 -0.1358
 3024SOL    HW112094   4.690   0.082   4.477  0.0585  0.5963  0.2417
 3024SOL    HW212095   4.544   0.047   4.500  0.0869  0.7762  0.6958
 3024SOL     MW12096   4.627   0.050   4.528  0.3883 -0.4405  0.0190
 3025SOL     OW12097   2.274   1.303   2.151 -0.2327 -0.3720  0.2853
 3025SOL    HW112098   2.214   1.367   2.111 -2.1720 -2.1267  0.1742
 3025SOL    HW212099   2.259   1.312   2.245  0.7703  0.4768  0.3765
 3025SOL     MW12100   2.264   1.313   2.158 -0.3526 -0.4879  0.2828
 3026SOL     OW12101   0.215   0.159   1.891  0.9158  0.0120 -0.2405
 3026SOL    HW112102   0.275   0.185   1.821  0.2925  0.6251 -0.5681
 3026SOL    HW212103   0.186   0.242   1.929  0.8384 -0.3013  0.3892
 3026SOL     MW12104   0.219   0.173   1.887  0.8261  0.0504 -0.2018
 3027SOL     OW12105   0.795   1.790   4.715 -0.6044  0.2568  0.2050
 3027SOL    HW112106   0.803   1.884   4.702 -0.7881  0.2540  0.0693
 3027SOL    HW212107   0.786   1.754   4.627  0.1601  0.0465  0.2062
 3027SOL     MW12108   0.795   1.797   4.702 -0.5300  0.2295  0.1878
 3028SOL     OW12109   2.348   2.716   2.646  0.4834  0.6076 -0.1188
 3028SOL    HW112110   2.268   2.663   2.647  0.5705  0.4793  0.3643
 3028SOL    HW212111   2.419   2.652   2.638  0.5119  0.7656 -1.2938
 3028SOL     MW12112   2.346   2.701   2.645  0.4982  0.6114 -0.2074
 3029SOL     OW12113   2.508   4.803   4.004 -0.2621  0.3404  0.0219
 3029SOL    HW112114   2.474   4.713   4.005  0.9836 -0.1586 -0.5087
 3029SOL    HW212115   2.457   4.848   4.071 -0.4204 -0.9561  0.8125
 3029SOL     MW12116   2.497   4.797   4.013 -0.1229  0.1105  0.0552
 3030SOL     OW12117   0.502   1.291   0.948 -0.1005 -0.4113  0.1160
 3030SOL    HW112118   0.484   1.206   0.908  1.0225  0.1173 -1.6836
 3030SOL    HW212119   0.598   1.300   0.944 -0.0101  0.0495  2.2520
 3030SOL     MW12120   0.512   1.282   0.942  0.0548 -0.2847  0.1591
 3031SOL     OW12121   1.510   5.294   4.387 -0.1455  0.3019  0.0839
 3031SOL    HW112122   1.592   5.286   4.338 -0.3848  0.1207 -0.2905
 3031SOL    HW212123   1.537   5.288   4.478  0.3742  1.2296  0.0064
 3031SOL     MW12124   1.524   5.292   4.392 -0.1096  0.3975  0.0261
 3032SOL     OW12125   5.347   4.037   2.771 -0.0408  0.1302 -0.7609
 3032SOL    HW112126   5.259   4.003   2.785 -0.4537  1.3792 -0.2343
 3032SOL    HW212127   5.403   3.982   2.826 -0.8866  1.2156  1.2584
 3032SOL     MW12128   5.343   4.025   2.780 -0.2019  0.4290 -0.4350
 3033SOL     OW12129   0.750   4.450   1.265 -0.2105  0.5830 -0.1281
 3033SOL    HW112130   0.677   4.409   1.310 -1.0798  0.2156 -1.7852
 3033SOL    HW212131   0.723   4.541   1.255 -0.1156  0.6147 -0.0917
 3033SOL     MW12132   0.737   4.456   1.269 -0.3096  0.5400 -0.3356
 3034SOL     OW12133   0.942   5.166   0.019  0.3095  0.3432 -0.1044
 3034SOL    HW112134   0.878   5.167   0.090  1.1911 -0.8282  0.7602
 3034SOL    HW212135   0.998   5.090   0.039  1.7975  1.1765 -0.9594
 3034SOL     MW12136   0.941   5.156   0.030  0.6128  0.2999 -0.1032
 3035SOL     OW12137   3.798   3.335   0.230  0.8237 -0.1083 -0.2342
 3035SOL    HW112138   3.791   3.422   0.269  0.1831  0.0822 -0.7667
 3035SOL    HW212139   3.785   3.275   0.303  1.2420  0.2383  0.1328
 3035SOL     MW12140   3.796   3.339   0.244  0.7953 -0.0395 -0.2554
 3036SOL     OW12141   2.013   0.659   3.946  0.1549  0.4449 -0.0677
 3036SOL    HW112142   2.000   0.749   3.977  1.8237  0.6124  0.2173
 3036SOL    HW212143   2.081   0.666   3.880  2.5222 -0.9364  2.0506
 3036SOL     MW12144   2.020   0.671   3.942  0.6716  0.2895  0.2399
 3037SOL     OW12145   4.731   2.901   1.092 -0.0169  0.0465  0.1370
 3037SOL    HW112146   4.665   2.842   1.055  0.8166  0.0361 -1.4201
 3037SOL    HW212147   4.704   2.988   1.064 -0.6880  0.3408  1.5874
 3037SOL     MW12148   4.719   2.904   1.084  0.0039  0.0828  0.1234
 3038SOL     OW12149   4.927   1.750   4.266 -0.9526 -0.2091  0.2363
 3038SOL    HW112150   4.971   1.783   4.344  0.6292  0.9257 -1.0802
 3038SOL    HW212151   4.845   1.712   4.299  0.9739 -2.5260  2.8353
 3038SOL     MW12152   4.922   1.749   4.280 -0.5035 -0.3604  0.4005
 3039SOL     OW12153   5.289   3.272   5.339  0.4074  0.3562 -0.0796
 3039SOL    HW112154   5.314   3.358   5.371  0.7641  0.0293  0.5408
 3039SOL    HW212155   5.302   3.213   5.414  0.4463 -0.2866 -0.5761
 3039SOL     MW12156   5.294   3.275   5.353  0.4580  0.2321 -0.0637
 3040SOL     OW12157   3.555   2.071   3.187 -0.0513  0.0332 -0.1576
 3040SOL    HW112158   3.634   2.038   3.144 -1.4785 -2.5647 -0.9582
 3040SOL    HW212159   3.564   2.043   3.278  0.0238 -0.0849 -0.2020
 3040SOL     MW12160   3.566   2.063   3.193 -0.2244 -0.3145 -0.2657
 3041SOL     OW12161   3.782   4.376   2.281  0.1672 -0.3406 -0.3144
 3041SOL    HW112162   3.842   4.439   2.241  0.1585  0.1339  0.4076
 3041SOL    HW212163   3.838   4.316   2.330  0.0169  0.6286  1.0935
 3041SOL     MW12164   3.797   4.376   2.282  0.1468 -0.1558 -0.0417
 3042SOL     OW12165   0.707   1.989   5.270 -0.2055  0.0484  0.2677
 3042SOL    HW112166   0.708   1.978   5.365 -0.6093  1.2469  0.4315
 3042SOL    HW212167   0.614   2.000   5.248 -0.2522 -1.6012 -0.4561
 3042SOL     MW12168   0.695   1.989   5.280 -0.2631 -0.0093  0.1960
 3043SOL     OW12169  -0.024   1.249   2.346  0.5795 -0.4816 -0.5423
 3043SOL    HW112170   0.058   1.211   2.377  1.2965 -0.4376 -2.2770
 3043SOL    HW212171  -0.003   1.341   2.330 -0.0939 -0.2363 -0.0394
 3043SOL     MW12172  -0.011   1.256   2.348  0.5851 -0.4445 -0.6999
 3044SOL     OW12173   1.492   0.804   4.516  0.2262  0.4225 -0.1914
 3044SOL    HW112174   1.548   0.856   4.458 -1.4869  0.8997 -1.5040
 3044SOL    HW212175   1.478   0.722   4.469 -0.2553  0.3545  0.0600
 3044SOL     MW12176   1.497   0.800   4.503 -0.0547  0.4748 -0.3272
 3045SOL     OW12177   4.677   0.520   0.458  0.1273  0.6996  0.2598
 3045SOL    HW112178   4.582   0.517   0.447  0.3747 -0.7166 -2.0223
 3045SOL    HW212179   4.696   0.451   0.522 -0.3069  0.2544 -0.0843
 3045SOL     MW12180   4.667   0.511   0.465  0.1034  0.4613 -0.0764
 3046SOL     OW12181   3.728   3.740   5.347  0.2343  0.0983 -0.0111
 3046SOL    HW112182   3.770   3.729   5.432 -0.0702  0.7631  0.2381
 3046SOL    HW212183   3.635   3.751   5.368  0.2190  0.7636 -0.3821
 3046SOL     MW12184   3.721   3.740   5.360  0.1933  0.2686 -0.0267
 3047SOL     OW12185   4.183   3.068   3.360 -0.1714  0.1944  0.2518
 3047SOL    HW112186   4.232   3.137   3.315  0.0941  0.2228  0.5824
 3047SOL    HW212187   4.205   3.078   3.452  0.6590 -0.9414  0.2063
 3047SOL     MW12188   4.192   3.078   3.366 -0.0311  0.0527  0.2883
 3048SOL     OW12189   0.140   4.520   0.057  0.0958  0.0330  0.2129
 3048SOL    HW112190   0.171   4.589   0.116 -1.5037 -0.5074  1.7385
 3048SOL    HW212191   0.149   4.439   0.107 -0.5657 -0.5450 -0.5747
 3048SOL     MW12192   0.145   4.518   0.071 -0.1937 -0.1101  0.3074
 3049SOL     OW12193   0.485   0.521   4.656 -0.4443 -0.3610  0.3210
 3049SOL    HW112194   0.458   0.429   4.647 -0.9964 -0.2003  0.3353
 3049SOL    HW212195   0.500   0.533   4.749  2.0284 -1.1014  0.1141
 3049SOL     MW12196   0.484   0.510   4.667 -0.1984 -0.4352  0.2963
 3050SOL     OW12197   4.499   4.279   0.255 -0.4502  0.8115  0.0759
 3050SOL    HW112198   4.467   4.218   0.189 -2.0200  0.3413  1.1976
 3050SOL    HW212199   4.461   4.363   0.231 -1.4809  0.5279  0.6553
 3050SOL     MW12200   4.490   4.282   0.244 -0.7831  0.7150  0.2937
 3051SOL     OW12201   5.279   1.939   3.590  0.2233 -0.0878 -0.4700
 3051SOL    HW112202   5.356   1.979   3.549 -0.0179  0.0765 -0.7660
 3051SOL    HW212203   5.205   1.989   3.556 -0.0955 -0.8644 -0.9282
 3051SOL     MW12204   5.279   1.951   3.581  0.1516 -0.1662 -0.5666
 3052SOL     OW12205   0.465   3.811   2.315 -0.2094  0.0401 -0.2448
 3052SOL    HW112206   0.462   3.730   2.366 -0.7117 -0.4659 -1.0607
 3052SOL    HW212207   0.449   3.880   2.379  2.2086 -0.3018  0.8534
 3052SOL     MW12208   0.463   3.810   2.330  0.0359 -0.0684 -0.2087
 3053SOL     OW12209   1.787   5.000   0.072  0.3847 -0.5513  0.4201
 3053SOL    HW112210   1.769   4.950   0.151  1.5715  1.1686  1.8746
 3053SOL    HW212211   1.804   5.089   0.103 -1.0140  0.6787 -1.9501
 3053SOL     MW12212   1.787   5.005   0.086  0.3576 -0.1736  0.3029
 3054SOL     OW12213   4.522   0.588   3.385 -0.5176  0.6623 -0.2870
 3054SOL    HW112214   4.586   0.656   3.406 -0.9893  1.0764 -0.1760
 3054SOL    HW212215   4.553   0.511   3.432  0.0050  0.8041 -0.3891
 3054SOL     MW12216   4.534   0.587   3.394 -0.5111  0.7335 -0.2859
 3055SOL     OW12217   2.993   1.221   4.824 -0.3402  0.0634  0.4989
 3055SOL    HW112218   2.989   1.243   4.731  0.9548  1.1390  0.6626
 3055SOL    HW212219   3.083   1.242   4.850 -0.6605 -0.2697  1.9849
 3055SOL     MW12220   3.004   1.226   4.816 -0.2154  0.1585  0.7101
 3056SOL     OW12221   3.527   4.965   3.188 -0.1160  0.0920  0.1025
 3056SOL    HW112222   3.549   5.008   3.271  1.3297 -0.0527 -0.1802
 3056SOL    HW212223   3.577   4.884   3.188  0.5040  0.4298 -1.2149
 3056SOL     MW12224   3.536   4.960   3.198  0.1484  0.1167 -0.1023
 3057SOL     OW12225   4.387   4.936   0.269 -0.1611 -0.1144 -0.4376
 3057SOL    HW112226   4.372   4.891   0.352  0.9329  1.3478  0.5991
 3057SOL    HW212227   4.399   5.028   0.293  2.3279  0.0371 -1.9444
 3057SOL     MW12228   4.387   4.942   0.282  0.2976  0.0922 -0.4978
 3058SOL     OW12229   1.142   5.439   5.160  0.6817 -0.7644  0.1812
 3058SOL    HW112230   1.065   5.423   5.105  0.5844 -0.7631  0.3177
 3058SOL    HW212231   1.147   5.534   5.167  0.7009 -0.7642  0.1661
 3058SOL     MW12232   1.133   5.449   5.154  0.6717 -0.7642  0.1967
 3059SOL     OW12233   0.293   1.763   3.469 -0.1911 -0.2117 -0.0676
 3059SOL    HW112234   0.255   1.838   3.423  0.7524 -0.1219 -0.7303
 3059SOL    HW212235   0.277   1.689   3.411  0.4293 -0.2107 -0.2471
 3059SOL     MW12236   0.286   1.763   3.455  0.0091 -0.2001 -0.1754
 3060SOL     OW12237   4.679   4.674   3.964 -0.1502 -0.0527 -0.0767
 3060SOL    HW112238   4.598   4.658   3.917 -0.0465 -0.5784 -0.0801
 3060SOL    HW212239   4.741   4.701   3.896 -0.6424  1.6031  0.0832
 3060SOL     MW12240   4.677   4.676   3.949 -0.1999  0.0920 -0.0566
 3061SOL     OW12241   2.128   1.662   4.442  0.1125 -0.1590 -0.2209
 3061SOL    HW112242   2.179   1.697   4.515 -1.2693 -0.5233  0.9644
 3061SOL    HW212243   2.188   1.601   4.398  1.0473  0.2591  0.4317
 3061SOL     MW12244   2.142   1.659   4.446  0.0553 -0.1521  0.0144
 3062SOL     OW12245   1.925   1.768   2.027 -0.2150  0.1604 -0.1356
 3062SOL    HW112246   1.986   1.802   2.092 -0.3135  2.9043 -1.3422
 3062SOL    HW212247   1.981   1.742   1.953 -0.2535 -1.1566  0.2692
 3062SOL     MW12248   1.940   1.769   2.026 -0.2326  0.3431 -0.2383
 3063SOL     OW12249   4.705   4.269   3.612  0.8422  0.1433  0.2923
 3063SOL    HW112250   4.724   4.293   3.522 -1.4122  1.0127 -0.0053
 3063SOL    HW212251   4.709   4.351   3.661 -0.6903  0.1820  0.4200
 3063SOL     MW12252   4.708   4.282   3.607  0.3574  0.2596  0.2705
 3064SOL     OW12253   0.624   0.230   1.712  0.0385  0.1429  0.4160
 3064SOL    HW112254   0.633   0.151   1.764  2.0104 -0.2796 -0.4734
 3064SOL    HW212255   0.704   0.280   1.728 -0.2846  1.0252 -0.5361
 3064SOL     MW12256   0.636   0.227   1.720  0.2495  0.2018  0.1803
 3065SOL     OW12257   2.271   3.007   3.732 -0.4398 -0.2202 -0.5359
 3065SOL    HW112258   2.198   2.952   3.704 -1.1004  0.7859 -0.8479
 3065SOL    HW212259   2.229   3.084   3.771  0.4559  0.5337 -1.0254
 3065SOL     MW12260   2.256   3.010   3.734 -0.4097  0.0051 -0.6385
 3066SOL     OW12261   1.174   5.301   0.251  0.7239 -0.2272  0.3797
 3066SOL    HW112262   1.157   5.320   0.159 -0.8083 -1.5512  0.3545
 3066SOL    HW212263   1.261   5.260   0.251  0.7934 -0.0995 -0.4441
 3066SOL     MW12264   1.183   5.298   0.239  0.5367 -0.3804  0.2710
 3067SOL     OW12265   4.079   3.084   0.529 -0.2139 -0.1005 -0.1557
 3067SOL    HW112266   4.116   3.090   0.617  0.3347 -0.2525 -0.3715
 3067SOL    HW212267   4.110   3.000   0.495 -0.2308  0.0594 -0.5774
 3067SOL     MW12268   4.088   3.074   0.536 -0.1458 -0.0995 -0.2373
 3068SOL     OW12269   5.311   3.399   4.957 -0.6867 -0.0372 -0.5255
 3068SOL    HW112270   5.253   3.421   4.885  0.3691  0.3428 -1.2777
 3068SOL    HW212271   5.397   3.385   4.917 -0.5340 -2.1136  0.3539
 3068SOL     MW12272   5.315   3.400   4.943 -0.5320 -0.2544 -0.5092
 3069SOL     OW12273   1.036   3.749   0.336 -0.5428 -0.1691  0.1232
 3069SOL    HW112274   0.960   3.785   0.383 -0.7176 -0.3792  0.0006
 3069SOL    HW212275   1.051   3.664   0.377 -1.1282 -0.6566 -0.6658
 3069SOL     MW12276   1.028   3.743   0.348 -0.6401 -0.2584  0.0065
 3070SOL     OW12277   4.126   2.727   2.790  0.5295  0.0356 -0.0224
 3070SOL    HW112278   4.105   2.633   2.796 -1.0517  0.2009 -2.0011
 3070SOL    HW212279   4.073   2.768   2.858  0.7773 -0.4458  0.4646
 3070SOL     MW12280   4.117   2.720   2.799  0.3588 -0.0048 -0.2134
 3071SOL     OW12281   0.233   4.083   2.314  0.2794 -0.3702 -0.0678
 3071SOL    HW112282   0.287   4.061   2.239 -0.3941  0.7371 -0.9064
 3071SOL    HW212283   0.157   4.128   2.277  0.9758  2.2347  1.3740
 3071SOL     MW12284   0.231   4.086   2.300  0.2823  0.1050  0.0094
 3072SOL     OW12285   3.275   4.222   3.471 -0.4711 -0.2591 -0.3071
 3072SOL    HW112286   3.194   4.232   3.422 -1.4241 -0.7199  1.1301
 3072SOL    HW212287   3.257   4.260   3.557  1.3638  1.1125 -0.4567
 3072SOL     MW12288   3.263   4.228   3.476 -0.3582 -0.1425 -0.1423
 3073SOL     OW12289   4.329   5.170   0.724 -0.2546  0.1319  0.4310
 3073SOL    HW112290   4.235   5.189   0.725 -0.4284 -0.6757  0.3494
 3073SOL    HW212291   4.368   5.241   0.774 -0.9408  0.3325  0.6986
 3073SOL     MW12292   4.322   5.182   0.731 -0.3647  0.0542  0.4548
 3074SOL     OW12293   1.449   1.355   0.379  0.1031  0.3727 -0.3336
 3074SOL    HW112294   1.415   1.284   0.434  0.0144  0.7456  0.1013
 3074SOL    HW212295   1.411   1.338   0.293 -0.5573  0.3368 -0.0421
 3074SOL     MW12296   1.440   1.344   0.375  0.0072  0.4158 -0.2406
 3075SOL     OW12297   4.408   1.671   0.590  0.2858  0.2368 -0.0171
 3075SOL    HW112298   4.413   1.701   0.681 -1.1826 -0.8206  0.4446
 3075SOL    HW212299   4.381   1.580   0.597 -0.6697  0.3763 -1.5480
 3075SOL     MW12300   4.406   1.663   0.603 -0.0245  0.1193 -0.1540
 3076SOL     OW12301   1.009   3.257   3.391  0.0235  1.0471  0.3170
 3076SOL    HW112302   1.084   3.198   3.382 -0.2843  0.8232 -1.0584
 3076SOL    HW212303   0.947   3.226   3.325 -1.1431  1.4504  1.1942
 3076SOL     MW12304   1.011   3.245   3.381 -0.1653  1.0701  0.2532
 3077SOL     OW12305   3.707   0.860   0.987 -0.2875 -0.0177  0.7525
 3077SOL    HW112306   3.755   0.783   1.016 -2.1035 -1.3609  0.3544
 3077SOL    HW212307   3.618   0.847   1.019 -0.4859  2.2931  1.3073
 3077SOL     MW12308   3.702   0.848   0.995 -0.5453  0.1061  0.7725
 3078SOL     OW12309   0.341   3.182   2.819 -0.1657  0.0479  0.4904
 3078SOL    HW112310   0.400   3.139   2.757 -1.4659 -0.5194 -0.3961
 3078SOL    HW212311   0.384   3.171   2.904  1.3299  0.2606 -0.2063
 3078SOL     MW12312   0.354   3.175   2.822 -0.1407  0.0025  0.2877
 3079SOL     OW12313   2.122   0.266   2.025  0.1314  0.2049  0.0405
 3079SOL    HW112314   2.102   0.305   2.111  1.9594  0.2953  0.4630
 3079SOL    HW212315   2.076   0.182   2.026  1.2497 -0.4342  1.7117
 3079SOL     MW12316   2.114   0.260   2.036  0.5086  0.1346  0.3086
 3080SOL     OW12317   3.039   4.734   4.765 -0.1704 -0.2020  0.2253
 3080SOL    HW112318   3.115   4.704   4.815 -0.4879 -0.7822  0.3756
 3080SOL    HW212319   2.976   4.761   4.833  0.7894  2.6813  0.1105
 3080SOL     MW12320   3.041   4.733   4.780 -0.0882  0.0928  0.2298
 3081SOL     OW12321   4.645   1.936   3.697  0.4065  0.3292 -0.2786
 3081SOL    HW112322   4.654   1.841   3.694 -1.3358  0.1297 -0.2879
 3081SOL    HW212323   4.701   1.964   3.770 -0.1866 -0.8647  0.6528
 3081SOL     MW12324   4.653   1.928   3.706  0.1075  0.1508 -0.1606
 3082SOL     OW12325   5.345   1.812   4.873  0.1579  0.1391 -0.2570
 3082SOL    HW112326   5.386   1.814   4.787  0.4326 -0.9569 -0.1620
 3082SOL    HW212327   5.353   1.721   4.902 -1.1851  0.1918  0.3335
 3082SOL     MW12328   5.351   1.801   4.866  0.0211  0.0055 -0.1692
 3083SOL     OW12329   4.051   5.071   3.945 -0.3702 -0.0835 -0.5532
 3083SOL    HW112330   4.041   4.977   3.963  0.2184 -0.1700 -0.6530
 3083SOL    HW212331   4.137   5.093   3.981 -1.5664  1.0083  1.8522
 3083SOL     MW12332   4.061   5.061   3.952 -0.4479  0.0452 -0.2581
 3084SOL     OW12333   3.681   1.442   0.977  0.0337 -0.8683  0.1161
 3084SOL    HW112334   3.622   1.518   0.975  1.4313  0.2441 -0.9742
 3084SOL    HW212335   3.684   1.417   1.069  0.4240  1.1350  0.7074
 3084SOL     MW12336   3.674   1.449   0.988  0.2625 -0.4695  0.0522
 3085SOL     OW12337   5.117   1.628   0.685 -0.0819 -0.1310  0.2926
 3085SOL    HW112338   5.197   1.588   0.650  1.4552  3.5530 -0.9532
 3085SOL    HW212339   5.083   1.564   0.747  4.0995 -1.7626  1.2264
 3085SOL     MW12340   5.123   1.615   0.688  0.6501  0.1318  0.2527
 3086SOL     OW12341   2.979   1.860   0.747 -0.2617 -0.6448 -0.1538
 3086SOL    HW112342   2.910   1.921   0.722 -0.9121 -0.7218  1.3639
 3086SOL    HW212343   2.945   1.774   0.724 -1.1111 -0.7685  1.4343
 3086SOL     MW12344   2.966   1.857   0.741 -0.4537 -0.6705  0.2438
 3087SOL     OW12345   4.013   4.113   0.323 -0.1706 -0.0954 -0.2519
 3087SOL    HW112346   4.015   4.196   0.370  1.6323  0.2128 -0.7983
 3087SOL    HW212347   4.099   4.074   0.339 -0.4907 -1.2138 -1.1315
 3087SOL     MW12348   4.025   4.118   0.331  0.0192 -0.1991 -0.4344
 3088SOL     OW12349   0.843   4.586   2.446 -0.1337 -0.2357 -0.1265
 3088SOL    HW112350   0.877   4.506   2.486  1.6303  1.0185  1.0356
 3088SOL    HW212351   0.914   4.617   2.390 -0.3818  1.0461  0.2356
 3088SOL     MW12352   0.857   4.580   2.444  0.0604  0.0890  0.0686
 3089SOL     OW12353   3.439   5.420   4.957 -0.5346  0.1261  0.3695
 3089SOL    HW112354   3.531   5.443   4.969 -0.6769  0.8837  0.1115
 3089SOL    HW212355   3.411   5.472   4.882 -1.1250 -0.2375  0.3330
 3089SOL     MW12356   3.447   5.430   4.949 -0.6284  0.1765  0.3318
 3090SOL     OW12357   1.936   4.899   0.921 -0.9495 -0.4190  0.1145
 3090SOL    HW112358   1.991   4.967   0.960 -1.7268 -0.6606  1.7045
 3090SOL    HW212359   1.996   4.848   0.866 -0.2195  1.1357 -0.5947
 3090SOL     MW12360   1.951   4.901   0.919 -0.9555 -0.2509  0.2273
 3091SOL     OW12361   0.363   3.340   0.838 -0.2871 -0.0023  0.7345
 3091SOL    HW112362   0.273   3.354   0.807 -0.0152 -0.8858 -0.4788
 3091SOL    HW212363   0.354   3.276   0.909 -0.4301 -1.7859 -0.8250
 3091SOL     MW12364   0.350   3.334   0.843 -0.2706 -0.3437  0.3796
 3092SOL     OW12365   3.660   3.560   1.541  0.4708  0.0378  0.1089
 3092SOL    HW112366   3.590   3.494   1.537  1.8567 -1.4405 -1.1601
 3092SOL    HW212367   3.617   3.639   1.573 -2.0715 -0.4477 -1.7992
 3092SOL     MW12368   3.645   3.561   1.545  0.3228 -0.2136 -0.2978
 3093SOL     OW12369   4.781   3.319   2.190  0.1717 -0.2806  0.3964
 3093SOL    HW112370   4.800   3.338   2.282 -0.6220 -0.4458  0.6108
 3093SOL    HW212371   4.685   3.313   2.187  0.2394 -1.2819 -0.2392
 3093SOL     MW12372   4.771   3.321   2.201  0.0788 -0.4299  0.3425
 3094SOL     OW12373   3.329   2.691   5.004 -0.2845 -0.2512  0.3067
 3094SOL    HW112374   3.328   2.638   4.924  0.0876  0.6242 -0.2979
 3094SOL    HW212375   3.413   2.671   5.045  0.6039  1.0244 -0.7613
 3094SOL     MW12376   3.340   2.682   4.999 -0.1231  0.0241  0.0926
 3095SOL     OW12377   1.551   0.520   3.039  0.2899 -0.0501  0.4056
 3095SOL    HW112378   1.566   0.612   3.058  0.5476 -0.2488  1.2324
 3095SOL    HW212379   1.607   0.500   2.965  0.3974  0.4004  0.3651
 3095SOL     MW12380   1.560   0.529   3.032  0.3367 -0.0179  0.5063
 3096SOL     OW12381   1.518   4.799   0.663  0.2912 -0.0921  0.4147
 3096SOL    HW112382   1.536   4.733   0.730  1.2845 -0.1214  0.1239
 3096SOL    HW212383   1.595   4.856   0.663  0.6924 -0.5898 -1.2940
 3096SOL     MW12384   1.530   4.798   0.672  0.4697 -0.1596  0.1587
 3097SOL     OW12385   0.967   5.386   4.601  0.2094 -0.4622 -0.1177
 3097SOL    HW112386   1.041   5.364   4.657  0.1373  0.4655  0.3535
 3097SOL    HW212387   1.006   5.400   4.515  0.6347  0.3172  0.1922
 3097SOL     MW12388   0.981   5.385   4.597  0.2546 -0.2437 -0.0177
 3098SOL     OW12389   1.811   0.641   5.230 -0.1812 -0.3022  0.1689
 3098SOL    HW112390   1.778   0.569   5.178 -1.8354  0.3259  0.2812
 3098SOL    HW212391   1.867   0.691   5.171 -1.4098 -0.0325 -0.7975
 3098SOL     MW12392   1.814   0.639   5.216 -0.5502 -0.1873  0.0596
 3099SOL     OW12393   3.305   2.583   4.048 -0.0472  0.0504  0.1818
 3099SOL    HW112394   3.255   2.594   3.967 -0.3658  0.8205  0.4670
 3099SOL    HW212395   3.386   2.631   4.032  0.0046 -0.0229  0.2244
 3099SOL     MW12396   3.309   2.591   4.035 -0.0814  0.1396  0.2237
 3100SOL     OW12397   2.648   0.025   2.892  0.3829 -0.3721 -0.0663
 3100SOL    HW112398   2.669   0.105   2.845  0.1611 -0.7666 -0.8503
 3100SOL    HW212399   2.554   0.032   2.910  0.5874  0.0648  0.8849
 3100SOL     MW12400   2.638   0.036   2.888  0.3807 -0.3667 -0.0449
 3101SOL     OW12401   2.128   0.472   4.224 -0.1285 -0.0609  0.1241
 3101SOL    HW112402   2.104   0.445   4.313  1.6970  0.7491  0.9021
 3101SOL    HW212403   2.220   0.450   4.216 -0.1054  0.4805 -1.3560
 3101SOL     MW12404   2.137   0.466   4.234  0.1082  0.1121  0.0343
 3102SOL     OW12405   2.125   5.078   1.031  0.3288 -0.0614  0.0346
 3102SOL    HW112406   2.077   5.148   1.075  2.8457  0.6719  1.8373
 3102SOL    HW212407   2.163   5.120   0.954  1.4943  0.5289  0.8918
 3102SOL     MW12408   2.124   5.092   1.027  0.8002  0.1081  0.3751
 3103SOL     OW12409   2.285   2.854   4.428  0.2767  0.5673 -0.6431
 3103SOL    HW112410   2.252   2.865   4.517 -0.4218 -1.6623 -0.5578
 3103SOL    HW212411   2.228   2.909   4.374 -1.3113 -0.4421 -0.0591
 3103SOL     MW12412   2.273   2.863   4.433 -0.0160  0.1527 -0.5574
 3104SOL     OW12413   4.871   3.809   0.462 -0.0309 -0.1056  0.5982
 3104SOL    HW112414   4.956   3.847   0.442  0.6575 -1.9722 -0.3189
 3104SOL    HW212415   4.875   3.721   0.424 -1.9243 -0.6786  1.5948
 3104SOL     MW12416   4.882   3.802   0.455 -0.1851 -0.4179  0.6084
 3105SOL     OW12417   2.690   5.036   2.788  0.3991  0.5106  0.0712
 3105SOL    HW112418   2.755   4.984   2.741 -0.6430  1.2547 -2.3936
 3105SOL    HW212419   2.607   4.992   2.770 -0.2265  1.7354 -0.1732
 3105SOL     MW12420   2.687   5.024   2.780  0.1856  0.7626 -0.2756
 3106SOL     OW12421   1.041   2.006   5.071 -0.1819 -0.1194  0.4264
 3106SOL    HW112422   0.981   1.933   5.082 -0.2245 -0.2584 -0.6287
 3106SOL    HW212423   1.126   1.971   5.096  0.2189 -1.2697 -2.1787
 3106SOL     MW12424   1.044   1.992   5.075 -0.1360 -0.2845 -0.0421
 3107SOL     OW12425   1.812   3.142   5.080  0.0007 -0.4815  0.3636
 3107SOL    HW112426   1.895   3.100   5.060  0.1727 -0.2738  0.6416
 3107SOL    HW212427   1.811   3.150   5.175 -0.3307 -0.4711  0.3622
 3107SOL     MW12428   1.822   3.137   5.089 -0.0197 -0.4536  0.3990
 3108SOL     OW12429   1.583   2.424   2.281  0.0953 -0.1558  0.4398
 3108SOL    HW112430   1.675   2.447   2.299  0.0743  0.8064 -0.6002
 3108SOL    HW212431   1.586   2.376   2.199 -0.1006 -2.2127  1.5783
 3108SOL     MW12432   1.595   2.421   2.273  0.0676 -0.2960  0.4524
 3109SOL     OW12433   0.072   4.100   1.706  0.0499  0.1543  0.1764
 3109SOL    HW112434   0.080   4.006   1.721 -0.0311 -0.0695 -1.0317
 3109SOL    HW212435   0.028   4.134   1.783 -0.0561 -0.8269  0.5601
 3109SOL     MW12436   0.068   4.092   1.718  0.0260  0.0001  0.0709
 3110SOL     OW12437   0.769   1.461   3.282 -0.3617 -0.0455 -0.1287
 3110SOL    HW112438   0.692   1.406   3.268 -0.9449  0.8253 -0.3635
 3110SOL    HW212439   0.734   1.546   3.307  0.5458 -0.0482  1.3047
 3110SOL     MW12440   0.755   1.465   3.284 -0.3202  0.0656  0.0248
 3111SOL     OW12441   4.433   2.504   0.337 -0.2580  0.3491 -0.4036
 3111SOL    HW112442   4.493   2.475   0.268 -1.3940  0.6518 -1.5640
 3111SOL    HW212443   4.438   2.435   0.403  1.9243  0.7416 -0.0739
 3111SOL     MW12444   4.441   2.491   0.337 -0.1241  0.4381 -0.5099
 3112SOL     OW12445   1.898   5.197   0.841 -0.1105 -0.4007  0.0092
 3112SOL    HW112446   1.872   5.208   0.749  1.6383 -2.6492 -0.8193
 3112SOL    HW212447   1.913   5.103   0.852  0.1606 -0.1502  2.5094
 3112SOL     MW12448   1.896   5.187   0.831  0.1481 -0.6565  0.2232
 3113SOL     OW12449   3.860   5.269   5.078 -0.1905 -0.9703  0.3020
 3113SOL    HW112450   3.839   5.234   5.164  1.3974 -0.9514  0.7230
 3113SOL    HW212451   3.931   5.213   5.046  0.5709  0.2231 -0.1442
 3113SOL     MW12452   3.866   5.257   5.085  0.1102 -0.8151  0.2987
 3114SOL     OW12453   4.911   0.116   5.431  0.7777  0.6894  0.4206
 3114SOL    HW112454   4.853   0.103   5.356  1.4442  1.3544 -0.2181
 3114SOL    HW212455   4.852   0.142   5.502  0.0863 -0.3986  0.2716
 3114SOL     MW12456   4.896   0.117   5.431  0.7745  0.6353  0.3198
 3115SOL     OW12457   4.474   2.170   3.997  0.5836  0.4419  0.2929
 3115SOL    HW112458   4.497   2.078   3.990 -0.4522  0.2619 -1.3535
 3115SOL    HW212459   4.558   2.216   4.003  1.1863 -0.4854 -0.7944
 3115SOL     MW12460   4.487   2.164   3.997  0.5281  0.3001 -0.0571
 3116SOL     OW12461   2.350   3.430   1.623  0.4583 -0.0579 -0.4057
 3116SOL    HW112462   2.292   3.505   1.636  0.6838 -0.0015  0.2972
 3116SOL    HW212463   2.325   3.367   1.691  1.4895  0.1424  0.1875
 3116SOL     MW12464   2.339   3.431   1.633  0.6192 -0.0251 -0.2397
 3117SOL     OW12465   0.347   2.636   3.509  0.4073  0.3136  0.2627
 3117SOL    HW112466   0.408   2.562   3.508  1.1272  0.8962 -0.5281
 3117SOL    HW212467   0.292   2.621   3.586 -1.2315 -2.4494 -1.2791
 3117SOL     MW12468   0.348   2.625   3.519  0.2897  0.0345 -0.0359
 3118SOL     OW12469   3.912   1.682   3.353 -0.4061 -0.0889  0.1435
 3118SOL    HW112470   3.908   1.641   3.439  1.6404  1.4329  1.0585
 3118SOL    HW212471   3.999   1.724   3.350 -1.4668  2.2529 -1.5426
 3118SOL     MW12472   3.923   1.682   3.363 -0.2799  0.4057  0.0448
 3119SOL     OW12473   1.895   3.598   5.287 -0.0008 -0.0604 -0.4419
 3119SOL    HW112474   1.930   3.683   5.314  1.8387 -0.4333 -1.5512
 3119SOL    HW212475   1.965   3.557   5.237  0.1578 -3.3109  2.1080
 3119SOL     MW12476   1.908   3.604   5.284  0.2550 -0.5242 -0.2575
 3120SOL     OW12477   3.940   4.277   0.716 -0.0653  0.1383 -0.0196
 3120SOL    HW112478   3.848   4.291   0.737 -0.1042 -1.7785  1.4405
 3120SOL    HW212479   3.961   4.194   0.759  2.4049  0.6351 -0.1528
 3120SOL     MW12480   3.931   4.268   0.724  0.2460 -0.0435  0.1503
 3121SOL     OW12481   3.572   1.887   4.461 -0.0860 -0.0563 -0.3110
 3121SOL    HW112482   3.583   1.976   4.496  0.0100 -0.4909  0.8116
 3121SOL    HW212483   3.589   1.896   4.368  0.3868  1.0296 -0.1385
 3121SOL     MW12484   3.576   1.900   4.454 -0.0132  0.0271 -0.1452
 3122SOL     OW12485   3.429   0.610   1.707 -0.1281 -0.0886 -0.1403
 3122SOL    HW112486   3.483   0.556   1.765 -1.3689 -0.3387  0.8088
 3122SOL    HW212487   3.423   0.559   1.626 -2.0037 -1.8453  1.0294
 3122SOL     MW12488   3.435   0.597   1.704 -0.5270 -0.3455  0.1309
 3123SOL     OW12489   1.590   0.132   5.258 -0.1564  0.1639  0.0008
 3123SOL    HW112490   1.668   0.152   5.311 -1.8089 -0.4273  2.8874
 3123SOL    HW212491   1.616   0.058   5.203  1.8894  1.2957 -0.6694
 3123SOL     MW12492   1.604   0.125   5.258 -0.1061  0.2331  0.2845
 3124SOL     OW12493   3.486   5.145   4.977 -0.1303 -0.0923 -0.3148
 3124SOL    HW112494   3.471   5.238   4.959 -1.3349 -0.1918  0.1083
 3124SOL    HW212495   3.564   5.123   4.925  0.3084  1.1986 -0.2411
 3124SOL     MW12496   3.494   5.154   4.968 -0.2283  0.0602 -0.2512
 3125SOL     OW12497   5.120   4.753   0.099 -0.5561 -0.1157 -0.0844
 3125SOL    HW112498   5.163   4.696   0.162  1.6071  0.5916 -0.8286
 3125SOL    HW212499   5.130   4.841   0.135  0.5085  0.2697 -1.2702
 3125SOL     MW12500   5.126   4.757   0.112 -0.1429  0.0241 -0.3314
 3126SOL     OW12501   0.408   2.132   0.465 -0.4844 -0.0318 -0.1512
 3126SOL    HW112502   0.490   2.095   0.496 -0.8425 -0.1139  0.7071
 3126SOL    HW212503   0.414   2.226   0.485 -1.4549 -0.3500  1.8912
 3126SOL     MW12504   0.419   2.140   0.471 -0.6545 -0.0831  0.2201
 3127SOL     OW12505   2.718   2.344   0.252 -0.3022  0.1473  0.3291
 3127SOL    HW112506   2.801   2.392   0.250 -0.8290  1.0798  0.1222
 3127SOL    HW212507   2.716   2.296   0.169 -0.3328  0.7771 -0.0439
 3127SOL     MW12508   2.729   2.344   0.241 -0.3736  0.3473  0.2549
 3128SOL     OW12509  -0.026   2.642   0.109 -0.1446 -1.1457  0.2339
 3128SOL    HW112510  -0.001   2.731   0.133 -1.4809 -0.0607 -2.1323
 3128SOL    HW212511   0.045   2.587   0.144  1.7144  1.0158  0.0531
 3128SOL     MW12512  -0.014   2.646   0.117 -0.0777 -0.7301 -0.0922
 3129SOL     OW12513   3.385   1.604   5.362  0.7327  0.0196  0.3689
 3129SOL    HW112514   3.322   1.618   5.433 -0.1808  2.4191 -0.8028
 3129SOL    HW212515   3.334   1.561   5.293  1.2607 -1.0011  0.5895
 3129SOL     MW12516   3.370   1.600   5.363  0.6833  0.1961  0.2472
 3130SOL     OW12517   5.100   5.005   2.456 -0.3838 -0.2347 -0.3341
 3130SOL    HW112518   5.052   5.018   2.537  0.8751 -0.9459  0.5659
 3130SOL    HW212519   5.043   4.950   2.402 -2.6346  2.8366 -1.3091
 3130SOL     MW12520   5.087   4.999   2.459 -0.5108  0.0674 -0.3437
 3131SOL     OW12521   4.045   3.033   5.079  0.1246  0.2730  0.6443
 3131SOL    HW112522   4.072   2.958   5.026  1.0970  1.1509 -0.1429
 3131SOL    HW212523   3.991   3.086   5.020  0.1436  0.6115  0.9301
 3131SOL     MW12524   4.042   3.030   5.065  0.2515  0.4287  0.5801
 3132SOL     OW12525   3.337   3.107   4.289 -0.1164  0.6046 -0.0222
 3132SOL    HW112526   3.426   3.078   4.267 -0.4957 -0.0818 -0.6890
 3132SOL    HW212527   3.333   3.197   4.256  1.1474  1.5801  2.2639
 3132SOL     MW12528   3.348   3.115   4.282 -0.0032  0.6416  0.1851
 3133SOL     OW12529   5.096   2.698   0.317  0.4370 -0.1081  0.0261
 3133SOL    HW112530   5.101   2.737   0.230 -0.2882 -2.3423 -1.1158
 3133SOL    HW212531   5.168   2.635   0.319 -0.3063 -0.9752  0.5148
 3133SOL     MW12532   5.106   2.695   0.306  0.2490 -0.5051 -0.0575
 3134SOL     OW12533   0.278   4.895   4.310  0.5361  0.1890  0.1702
 3134SOL    HW112534   0.228   4.977   4.313  1.1744  0.5910  0.0437
 3134SOL    HW212535   0.281   4.872   4.217  1.7986  0.9389  0.0044
 3134SOL     MW12536   0.272   4.903   4.298  0.7794  0.3365  0.1328
 3135SOL     OW12537   2.640   3.743   0.759  0.3458 -0.0808 -0.5938
 3135SOL    HW112538   2.621   3.696   0.840  1.4706 -0.1688 -0.3584
 3135SOL    HW212539   2.708   3.691   0.716  0.4258  0.4554 -1.1393
 3135SOL     MW12540   2.646   3.730   0.764  0.5001 -0.0234 -0.6335
 3136SOL     OW12541   2.255   0.206   1.078 -0.0401 -0.3144  0.5341
 3136SOL    HW112542   2.189   0.264   1.116  0.8949  2.3640 -1.5358
 3136SOL    HW212543   2.217   0.118   1.085 -1.7455  0.5011  3.4842
 3136SOL     MW12544   2.242   0.202   1.084 -0.1388  0.1329  0.6468
 3137SOL     OW12545   4.938   0.416   4.008  0.0232  0.3329  0.1833
 3137SOL    HW112546   4.858   0.391   4.054  0.6735 -0.6622  0.8098
 3137SOL    HW212547   4.969   0.494   4.054  1.0486 -1.0452  1.9893
 3137SOL     MW12548   4.932   0.423   4.020  0.2377  0.0291  0.4947
 3138SOL     OW12549   2.698   2.186   0.035  0.1574 -0.0312 -0.0446
 3138SOL    HW112550   2.773   2.187  -0.025  1.2547  0.3360  1.2916
 3138SOL    HW212551   2.674   2.093   0.040  1.1922 -0.2969  0.3047
 3138SOL     MW12552   2.705   2.174   0.028  0.4303 -0.0182  0.1712
 3139SOL     OW12553   5.108   4.808   1.803 -0.1559  0.2661  0.3111
 3139SOL    HW112554   5.131   4.876   1.739 -0.7212 -0.4471 -0.6895
 3139SOL    HW212555   5.165   4.825   1.878  0.5473  1.1225 -0.3938
 3139SOL     MW12556   5.118   4.819   1.804 -0.1382  0.2844  0.0928
 3140SOL     OW12557   2.882   2.150   0.377  0.7443 -0.1140  0.2825
 3140SOL    HW112558   2.808   2.206   0.353  0.4038 -0.5520  0.2825
 3140SOL    HW212559   2.946   2.165   0.307 -0.0012 -0.9260 -0.6192
 3140SOL     MW12560   2.881   2.159   0.365  0.6053 -0.2740  0.1670
 3141SOL     OW12561   3.613   1.917   1.898  0.3446 -0.5135  0.4140
 3141SOL    HW112562   3.567   1.833   1.891  1.4693 -1.1255  0.1264
 3141SOL    HW212563   3.682   1.912   1.832 -0.4265  1.2187 -0.6099
 3141SOL     MW12564   3.616   1.906   1.889  0.3899 -0.3701  0.2461
 3142SOL     OW12565   3.840   2.789   3.999 -0.2717  0.1718 -0.3668
 3142SOL    HW112566   3.874   2.745   3.921 -0.2710  0.7474 -0.6978
 3142SOL    HW212567   3.872   2.736   4.072  1.0389  0.4931 -0.6801
 3142SOL     MW12568   3.849   2.776   3.998 -0.1039  0.2866 -0.4493
 3143SOL     OW12569   1.034   4.068   1.427  0.0496 -0.2128 -0.4364
 3143SOL    HW112570   0.966   4.118   1.472 -0.1861 -1.3969  0.6102
 3143SOL    HW212571   1.004   3.977   1.431  1.0314 -0.5978 -1.1876
 3143SOL     MW12572   1.022   4.063   1.433  0.1451 -0.4137 -0.3986
 3144SOL     OW12573   2.937   3.087   3.238  0.6538  0.6874 -0.4181
 3144SOL    HW112574   2.846   3.086   3.210  0.2874  0.9909  0.7100
 3144SOL    HW212575   2.959   2.995   3.251 -0.1356  0.7060  1.2538
 3144SOL     MW12576   2.928   3.075   3.236  0.5059  0.7286 -0.0596
 3145SOL     OW12577   1.589   5.207   0.979 -0.8505 -0.4331 -0.2494
 3145SOL    HW112578   1.651   5.224   1.051 -1.6495 -0.0047  0.3523
 3145SOL    HW212579   1.639   5.228   0.900 -1.1017  2.9262  0.3280
 3145SOL     MW12580   1.604   5.212   0.978 -0.9849  0.0518 -0.0985
 3146SOL     OW12581   2.031   4.501   0.968  0.1843  0.4472 -0.2461
 3146SOL    HW112582   2.114   4.457   0.983  0.6400  1.3152 -0.1684
 3146SOL    HW212583   2.031   4.575   1.029 -0.3226  0.8665 -0.7427
 3146SOL     MW12584   2.042   4.505   0.977  0.1777  0.6120 -0.2997
 3147SOL     OW12585   4.897   0.647   1.431  0.0892  0.0597  0.7010
 3147SOL    HW112586   4.977   0.599   1.408  0.6402  1.2717  0.0042
 3147SOL    HW212587   4.866   0.683   1.347  0.2237  1.7065  1.3337
 3147SOL     MW12588   4.903   0.645   1.417  0.1770  0.4257  0.6928
 3148SOL     OW12589   4.045   1.587   2.796  0.1300 -0.7173  0.3693
 3148SOL    HW112590   4.002   1.663   2.758  1.0341  0.7981  2.2087
 3148SOL    HW212591   3.977   1.546   2.850 -0.7054 -1.9888 -1.5330
 3148SOL     MW12592   4.031   1.591   2.798  0.1388 -0.6861  0.3613
 3149SOL     OW12593   3.693   0.526   2.459  0.3184  0.0648 -0.1203
 3149SOL    HW112594   3.624   0.592   2.463 -0.6735 -0.9673  0.5008
 3149SOL    HW212595   3.649   0.447   2.426  1.4759 -0.2783 -0.8892
 3149SOL     MW12596   3.678   0.524   2.456  0.3396 -0.1113 -0.1392
 3150SOL     OW12597   0.560   4.959   1.072  0.3705  0.2491 -0.4114
 3150SOL    HW112598   0.489   4.956   1.008  0.3135 -3.4720 -0.3458
 3150SOL    HW212599   0.518   4.938   1.156  1.2458 -0.2057 -0.0708
 3150SOL     MW12600   0.546   4.956   1.075  0.4753 -0.2855 -0.3594
 3151SOL     OW12601   1.555   2.623   4.498 -0.6101  0.4634  0.3243
 3151SOL    HW112602   1.495   2.669   4.556 -0.7716  0.2231  0.3452
 3151SOL    HW212603   1.506   2.610   4.417 -0.1694  1.3865 -0.1119
 3151SOL     MW12604   1.541   2.627   4.495 -0.5744  0.5508  0.2712
 3152SOL     OW12605   3.620   3.032   4.771  0.4544  0.0150  0.5011
 3152SOL    HW112606   3.709   3.037   4.737 -0.1692  0.0891 -1.1890
 3152SOL    HW212607   3.591   3.123   4.774 -0.5295 -0.1709 -1.7180
 3152SOL     MW12608   3.628   3.045   4.767  0.2486  0.0007  0.0007
 3153SOL     OW12609   0.422   3.404   0.387  0.6356  0.4550 -0.1838
 3153SOL    HW112610   0.478   3.380   0.461  0.5136 -0.3559 -0.3387
 3153SOL    HW212611   0.377   3.483   0.416  2.1050  1.3392 -0.1945
 3153SOL     MW12612   0.423   3.411   0.401  0.8081  0.4644 -0.2050
 3154SOL     OW12613   2.944   0.503   1.610 -0.5651  0.6544  0.3071
 3154SOL    HW112614   3.025   0.536   1.650 -0.6865  0.5377  0.6458
 3154SOL    HW212615   2.924   0.567   1.541  0.5909 -0.0583 -0.7332
 3154SOL     MW12616   2.952   0.516   1.606 -0.4326  0.5482  0.2173
 3155SOL     OW12617   5.374   4.430   3.503 -0.1920 -0.1731  0.0766
 3155SOL    HW112618   5.452   4.378   3.486 -0.2695 -0.0742 -0.5846
 3155SOL    HW212619   5.355   4.473   3.420 -0.2738  0.7150  0.5397
 3155SOL     MW12620   5.382   4.429   3.490 -0.2124 -0.0468  0.0512
 3156SOL     OW12621   0.441   2.948   0.355 -0.3901  0.0199 -0.0051
 3156SOL    HW112622   0.500   3.005   0.404 -2.3864  1.7963  0.5050
 3156SOL    HW212623   0.404   3.005   0.287 -1.3243 -1.0864 -0.4588
 3156SOL     MW12624   0.443   2.963   0.353 -0.7652  0.1057  0.0022
 3157SOL     OW12625   2.787   4.783   1.513  0.0868 -0.0733  0.1018
 3157SOL    HW112626   2.827   4.843   1.576  1.3898  0.1461 -0.8833
 3157SOL    HW212627   2.709   4.830   1.482  1.0904  1.1741 -0.6653
 3157SOL     MW12628   2.782   4.797   1.517  0.3820  0.1145 -0.1225
 3158SOL     OW12629   0.060   3.215   5.206  0.5423 -0.6357  0.5535
 3158SOL    HW112630  -0.017   3.238   5.258  0.8837 -2.8253  2.1871
 3158SOL    HW212631   0.025   3.169   5.130  0.0937  1.8126 -0.8344
 3158SOL     MW12632   0.046   3.212   5.203  0.5286 -0.6026  0.5849
 3159SOL     OW12633   0.280   3.813   0.810 -0.3196  0.4915 -0.0304
 3159SOL    HW112634   0.186   3.810   0.823 -0.2149  2.2004  1.7076
 3159SOL    HW212635   0.313   3.734   0.853 -0.9373 -0.1298 -0.6762
 3159SOL     MW12636   0.273   3.803   0.817 -0.3853  0.6307  0.1094
 3160SOL     OW12637   4.424   4.419   4.629 -0.2727  0.7747  0.6722
 3160SOL    HW112638   4.469   4.370   4.698  2.1404  0.4666 -0.9662
 3160SOL    HW212639   4.481   4.408   4.552 -2.2488  2.0285 -1.0648
 3160SOL     MW12640   4.437   4.411   4.628 -0.2167  0.8958  0.2401
 3161SOL     OW12641   2.243   0.893   5.282  0.0950 -0.0003 -0.4832
 3161SOL    HW112642   2.329   0.879   5.321  0.6564 -0.9147 -1.9722
 3161SOL    HW212643   2.250   0.857   5.194 -2.0753 -0.9131 -0.3543
 3161SOL     MW12644   2.255   0.887   5.276 -0.1109 -0.2342 -0.6573
 3162SOL     OW12645   3.696   5.340   2.456 -0.1342 -0.1020 -0.4152
 3162SOL    HW112646   3.704   5.295   2.540  0.4459  0.6349 -0.0670
 3162SOL    HW212647   3.659   5.425   2.478  0.2761  0.1994 -0.8713
 3162SOL     MW12648   3.692   5.345   2.470 -0.0074  0.0309 -0.4290
 3163SOL     OW12649   4.020   2.923   3.189  0.2759  0.1512 -0.0701
 3163SOL    HW112650   4.082   2.962   3.250 -0.8409  2.4369 -0.2872
 3163SOL    HW212651   4.040   2.963   3.105 -1.4865  1.0505 -0.1286
 3163SOL     MW12652   4.030   2.933   3.186 -0.0927  0.5589 -0.1054
 3164SOL     OW12653   4.158   5.045   3.679 -0.7483 -0.2070  0.4081
 3164SOL    HW112654   4.122   5.061   3.766  0.0085  0.7542  0.5699
 3164SOL    HW212655   4.183   5.132   3.648  0.5808 -0.7273 -0.0595
 3164SOL     MW12656   4.157   5.058   3.686 -0.4813 -0.1506  0.3689
 3165SOL     OW12657   2.004   2.914   4.063  0.1447  0.0905  0.0523
 3165SOL    HW112658   1.941   2.847   4.038  1.2917 -1.5557  1.3216
 3165SOL    HW212659   1.968   2.996   4.029 -2.8401 -0.6935  1.0057
 3165SOL     MW12660   1.992   2.916   4.056 -0.0906 -0.2206  0.3368
 3166SOL     OW12661   0.412   2.252   1.165 -0.0830 -0.0500 -0.0217
 3166SOL    HW112662   0.369   2.333   1.195 -0.2957  0.0091 -0.4658
 3166SOL    HW212663   0.423   2.265   1.071  0.3232 -0.3411 -0.0156
 3166SOL     MW12664   0.408   2.264   1.157 -0.0582 -0.0797 -0.0778
 3167SOL     OW12665   3.981   1.389   3.643  0.6506 -0.0221  0.0327
 3167SOL    HW112666   3.910   1.366   3.703  0.6572  1.6688  0.7178
 3167SOL    HW212667   3.986   1.314   3.583 -0.4724 -0.9924  1.0938
 3167SOL     MW12668   3.973   1.376   3.643  0.5077  0.0701  0.2562
 3168SOL     OW12669   3.669   3.404   3.699 -0.3845  0.1821  0.4359
 3168SOL    HW112670   3.750   3.453   3.714 -0.6538  1.4005 -1.7050
 3168SOL    HW212671   3.699   3.318   3.668  0.0715  0.0359  1.2426
 3168SOL     MW12672   3.683   3.399   3.697 -0.3606  0.3194  0.2651
 3169SOL     OW12673   0.630   5.442   1.277  0.1844 -0.1805 -0.4654
 3169SOL    HW112674   0.541   5.433   1.243 -0.3386 -0.9105  0.9690
 3169SOL    HW212675   0.686   5.429   1.201 -0.9201  1.5118 -1.6441
 3169SOL     MW12676   0.626   5.439   1.263 -0.0239 -0.0573 -0.4327
 3170SOL     OW12677   4.809   2.023   0.174  0.3564 -0.1458 -0.3746
 3170SOL    HW112678   4.812   1.937   0.216  1.0902  0.3792  0.7032
 3170SOL    HW212679   4.737   2.017   0.111  0.4601 -1.5696 -0.3919
 3170SOL     MW12680   4.800   2.011   0.171  0.4636 -0.2608 -0.2389
 3171SOL     OW12681   1.067   0.978   1.523 -0.1995  0.3188 -0.2835
 3171SOL    HW112682   1.013   1.035   1.577  0.2855 -0.4268  1.0328
 3171SOL    HW212683   1.139   0.952   1.580 -0.9405 -2.4478 -0.4642
 3171SOL     MW12684   1.069   0.982   1.537 -0.2323 -0.1308 -0.1382
 3172SOL     OW12685   1.595   4.635   4.255  0.3476  0.3846 -0.0343
 3172SOL    HW112686   1.510   4.604   4.287  0.1103  1.5774  0.5549
 3172SOL    HW212687   1.624   4.566   4.195 -0.9395 -0.1511 -0.0940
 3172SOL     MW12688   1.588   4.622   4.251  0.1525  0.4687  0.0335
 3173SOL     OW12689   0.596   2.763   3.574  0.4079 -0.0995  0.2627
 3173SOL    HW112690   0.507   2.726   3.576 -0.0766  0.8936 -1.0956
 3173SOL    HW212691   0.584   2.851   3.538  1.8671  0.3421  0.7858
 3173SOL     MW12692   0.583   2.770   3.570  0.5326  0.0841  0.1558
 3174SOL     OW12693   0.818   0.162   5.237 -0.0399 -0.3465 -0.1403
 3174SOL    HW112694   0.847   0.109   5.311  0.6774 -0.9134 -0.8106
 3174SOL    HW212695   0.884   0.230   5.228 -1.1194  0.9081  0.9141
 3174SOL     MW12696   0.830   0.164   5.245 -0.0862 -0.2585 -0.0911
 3175SOL     OW12697   5.019   3.738   4.883  0.0844 -0.1755  0.0434
 3175SOL    HW112698   5.022   3.780   4.969  1.0702  1.8624 -0.9088
 3175SOL    HW212699   5.111   3.721   4.862  0.2039  2.3191 -1.8909
 3175SOL     MW12700   5.031   3.741   4.891  0.2259  0.4047 -0.3261
 3176SOL     OW12701   2.455   5.011   2.345  0.0468 -0.5263  0.1842
 3176SOL    HW112702   2.496   4.952   2.408  2.5776 -0.1541 -0.9646
 3176SOL    HW212703   2.363   4.986   2.344  0.5409 -2.6600  1.6536
 3176SOL     MW12704   2.449   5.000   2.353  0.4340 -0.7518  0.2252
 3177SOL     OW12705   0.645   0.645   0.892  0.0257 -0.1783 -0.3011
 3177SOL    HW112706   0.718   0.645   0.954 -0.3769  0.5698  0.1895
 3177SOL    HW212707   0.640   0.736   0.861 -1.8452  0.2598  1.0819
 3177SOL     MW12708   0.653   0.657   0.896 -0.2654 -0.0264 -0.0612
 3178SOL     OW12709   1.929   2.754   4.362 -0.0632  0.3110  0.2881
 3178SOL    HW112710   2.004   2.701   4.336 -0.9822 -0.3833 -1.0692
 3178SOL    HW212711   1.871   2.754   4.285 -1.3431  1.0171  1.2036
 3178SOL     MW12712   1.931   2.748   4.349 -0.3447  0.3125  0.2315
 3179SOL     OW12713   5.287   4.555   3.257 -0.0346  0.2815 -0.4912
 3179SOL    HW112714   5.328   4.638   3.231  2.3778 -0.5619  0.3497
 3179SOL    HW212715   5.328   4.490   3.201 -0.1864 -0.6189  0.4133
 3179SOL     MW12716   5.298   4.557   3.247  0.2547  0.0583 -0.2678
 3180SOL     OW12717   5.296   4.698   4.449 -0.1122 -0.1877 -0.1324
 3180SOL    HW112718   5.241   4.709   4.371 -0.1235  0.0249 -0.0969
 3180SOL    HW212719   5.346   4.779   4.454 -1.9767  0.9713  1.5309
 3180SOL     MW12720   5.295   4.710   4.440 -0.3523 -0.0121  0.0850
 3181SOL     OW12721   2.760   2.932   5.197 -0.0813  0.4602 -0.1687
 3181SOL    HW112722   2.716   2.969   5.121  0.8385  0.4284 -0.7347
 3181SOL    HW212723   2.716   2.971   5.273 -2.3601 -1.0308 -0.6418
 3181SOL     MW12724   2.749   2.941   5.197 -0.2552  0.2653 -0.3017
 3182SOL     OW12725   0.046   5.275   1.779  0.2141 -0.6166 -0.1646
 3182SOL    HW112726   0.071   5.334   1.708  0.2965 -1.1180 -0.5593
 3182SOL    HW212727   0.096   5.305   1.855  0.4262 -0.3233 -0.4218
 3182SOL     MW12728   0.055   5.286   1.780  0.2518 -0.6432 -0.2481
 3183SOL     OW12729   1.848   2.740   3.904  0.5674  0.0201  0.3222
 3183SOL    HW112730   1.784   2.808   3.885 -1.3736 -1.3579  1.5648
 3183SOL    HW212731   1.859   2.693   3.821 -0.2694  0.0937  0.1612
 3183SOL     MW12732   1.842   2.743   3.891  0.2118 -0.1469  0.4607
 3184SOL     OW12733   4.140   0.948   5.381 -0.1225 -0.3268  0.1385
 3184SOL    HW112734   4.199   1.018   5.353  0.9314  0.6689  4.2009
 3184SOL    HW212735   4.052   0.985   5.369  0.3057  0.4841 -0.5955
 3184SOL     MW12736   4.136   0.962   5.376  0.0673 -0.0956  0.5646
 3185SOL     OW12737   5.454   2.412   4.965  0.0284  0.6204 -0.0384
 3185SOL    HW112738   5.387   2.432   5.030 -0.5540  2.1362 -1.0324
 3185SOL    HW212739   5.496   2.333   4.997 -0.6438  0.9706  1.8486
 3185SOL     MW12740   5.451   2.405   4.977 -0.1322  0.8593  0.0759
 3186SOL     OW12741   2.048   4.561   2.025 -0.0972  0.2120 -0.3437
 3186SOL    HW112742   2.057   4.558   1.930  2.5463  0.3852 -0.1686
 3186SOL    HW212743   2.018   4.650   2.043  1.3835  0.8684 -0.9485
 3186SOL     MW12744   2.045   4.572   2.015  0.4308  0.3182 -0.3987
 3187SOL     OW12745   0.235   0.187   3.115 -0.2707 -0.2585  0.1235
 3187SOL    HW112746   0.199   0.211   3.029  1.3370  0.5733 -0.3548
 3187SOL    HW212747   0.325   0.160   3.096 -0.1515 -0.8602  1.4590
 3187SOL     MW12748   0.242   0.186   3.101 -0.0496 -0.2291  0.2332
 3188SOL     OW12749   3.925   3.504   3.741 -0.3460  0.8190  0.8878
 3188SOL    HW112750   3.959   3.586   3.777  0.6703  0.9283 -0.2454
 3188SOL    HW212751   3.999   3.444   3.744  0.2282  1.2172 -2.1053
 3188SOL     MW12752   3.939   3.507   3.746 -0.1424  0.8840  0.3596
 3189SOL     OW12753   0.067   4.966   3.182  0.2119 -0.1811  0.1375
 3189SOL    HW112754   0.144   5.017   3.208 -0.3576  0.4292  0.6683
 3189SOL    HW212755   0.010   4.969   3.258 -0.5008 -0.3024 -0.3859
 3189SOL     MW12756   0.070   4.973   3.195  0.0478 -0.1185  0.1384
 3190SOL     OW12757   4.295   1.328   1.180  0.5355 -0.5199  0.0246
 3190SOL    HW112758   4.369   1.368   1.226  2.0082 -1.8829 -1.0626
 3190SOL    HW212759   4.294   1.369   1.094  0.1695 -0.6888 -0.0554
 3190SOL     MW12760   4.304   1.338   1.175  0.6771 -0.7160 -0.1248
 3191SOL     OW12761   1.961   2.780   5.327 -0.1851 -0.0064 -0.4908
 3191SOL    HW112762   1.984   2.690   5.350  1.7234  0.4546 -0.3579
 3191SOL    HW212763   1.867   2.779   5.314  0.1458 -2.7710 -3.9124
 3191SOL     MW12764   1.952   2.769   5.328  0.1016 -0.3013 -0.9118
 3192SOL     OW12765   4.514   2.652   3.896 -0.0448 -0.1043  0.2565
 3192SOL    HW112766   4.551   2.578   3.849 -1.0696 -1.3759  1.3721
 3192SOL    HW212767   4.544   2.729   3.847  1.9928 -1.1740 -0.2656
 3192SOL     MW12768   4.522   2.652   3.883  0.0849 -0.4040  0.3325
 3193SOL     OW12769   5.316   5.315   3.244 -0.0255  0.0060 -0.3640
 3193SOL    HW112770   5.257   5.335   3.172 -0.0610  0.5281 -0.1933
 3193SOL    HW212771   5.390   5.375   3.232  0.5734 -0.7758 -0.6933
 3193SOL     MW12772   5.318   5.326   3.233  0.0466 -0.0273 -0.3843
 3194SOL     OW12773   2.551   3.763   4.324  0.1144  0.3580 -0.7025
 3194SOL    HW112774   2.531   3.850   4.359  0.7833  1.0979 -2.0852
 3194SOL    HW212775   2.565   3.708   4.402  1.2642  1.8545  0.1984
 3194SOL     MW12776   2.550   3.767   4.339  0.3472  0.6443 -0.7642
 3195SOL     OW12777   2.399   4.312   3.895  0.6813 -0.0118  0.0746
 3195SOL    HW112778   2.400   4.296   3.801 -0.0602 -0.3376  0.1208
 3195SOL    HW212779   2.468   4.255   3.930  0.3662 -0.5417 -0.1680
 3195SOL     MW12780   2.408   4.303   3.888  0.5461 -0.1213  0.0495
 3196SOL     OW12781   2.910   3.380   0.206 -0.1239  0.1305 -0.1200
 3196SOL    HW112782   2.820   3.346   0.204 -1.1338  2.4623  1.3926
 3196SOL    HW212783   2.959   3.314   0.256 -1.3685 -0.4332  0.3906
 3196SOL     MW12784   2.905   3.367   0.212 -0.4125  0.3568  0.1390
 3197SOL     OW12785   2.310   3.955   3.709 -0.1456  0.7959  0.3442
 3197SOL    HW112786   2.230   4.007   3.717  0.2733  1.5139 -0.0184
 3197SOL    HW212787   2.349   3.957   3.797 -1.7292 -1.6359  1.2384
 3197SOL     MW12788   2.305   3.962   3.722 -0.2947  0.5765  0.4123
 3198SOL     OW12789   0.194   4.550   4.157 -0.0677  0.0368 -0.1228
 3198SOL    HW112790   0.237   4.486   4.101  0.4164  1.4219 -1.3853
 3198SOL    HW212791   0.253   4.559   4.232  0.3710 -0.2471 -0.4268
 3198SOL     MW12792   0.207   4.543   4.160  0.0504  0.1778 -0.3233
 3199SOL     OW12793   0.800   3.018   4.149 -0.3519 -0.3006 -0.0586
 3199SOL    HW112794   0.788   2.937   4.099 -1.0081 -0.2746  0.0513
 3199SOL    HW212795   0.713   3.057   4.153 -0.1797  0.0357  0.5256
 3199SOL     MW12796   0.788   3.013   4.143 -0.4139 -0.2542  0.0303
 3200SOL     OW12797   2.945   3.969   4.490 -0.3809 -0.2690 -0.1101
 3200SOL    HW112798   2.977   4.055   4.464  0.4201 -0.3222  0.6746
 3200SOL    HW212799   2.926   3.925   4.407  1.3673 -0.1489 -0.6195
 3200SOL     MW12800   2.946   3.974   4.476 -0.0546 -0.2604 -0.0748
 3201SOL     OW12801   0.730   0.227   2.926 -0.1936  0.1212 -0.1268
 3201SOL    HW112802   0.653   0.193   2.973  0.8691 -1.9301  0.2800
 3201SOL    HW212803   0.762   0.299   2.981 -1.1639  0.2510  0.2887
 3201SOL     MW12804   0.724   0.232   2.939 -0.1817 -0.1248 -0.0216
 3202SOL     OW12805   4.983   1.477   4.174  0.1836  0.5771  0.2243
 3202SOL    HW112806   4.907   1.501   4.228 -1.6245 -3.7004 -0.0138
 3202SOL    HW212807   5.045   1.437   4.236 -0.1723 -0.7561 -0.2391
 3202SOL     MW12808   4.981   1.475   4.189 -0.0935 -0.1411  0.1345
 3203SOL     OW12809   2.358   3.298   1.999 -0.3109 -0.2736  0.0280
 3203SOL    HW112810   2.445   3.336   1.986 -0.8455  0.6015 -1.1828
 3203SOL    HW212811   2.372   3.227   2.062  1.2388 -0.0235  0.0054
 3203SOL     MW12812   2.371   3.294   2.005 -0.1809 -0.1296 -0.1299
 3204SOL     OW12813   3.887   4.788   0.088 -0.1558  0.0747  0.1287
 3204SOL    HW112814   3.978   4.774   0.115 -0.5354 -1.5066  0.7033
 3204SOL    HW212815   3.893   4.843   0.010  1.2276  0.7998  0.7026
 3204SOL     MW12816   3.900   4.794   0.082 -0.0273 -0.0349  0.2757
 3205SOL     OW12817   0.492   4.974   1.588 -0.1610 -0.2477 -0.2105
 3205SOL    HW112818   0.475   4.938   1.675  1.8419 -1.4473 -0.2616
 3205SOL    HW212819   0.524   5.063   1.604 -0.9694 -0.0236  0.1887
 3205SOL     MW12820   0.494   4.981   1.601 -0.0081 -0.3726 -0.1659
 3206SOL     OW12821   3.958   3.960   3.252 -0.1313  0.3875 -0.1800
 3206SOL    HW112822   3.876   3.910   3.246  0.5788 -1.0963  1.4787
 3206SOL    HW212823   3.975   3.988   3.162 -1.3009 -1.2222 -0.9748
 3206SOL     MW12824   3.950   3.957   3.240 -0.1901 -0.0085 -0.0694
 3207SOL     OW12825   2.615   0.586   2.124 -0.6400  0.0265 -0.1816
 3207SOL    HW112826   2.534   0.598   2.074  0.2838 -0.0447 -1.7495
 3207SOL    HW212827   2.620   0.491   2.139 -1.4930  0.1549  1.1009
 3207SOL     MW12828   2.605   0.575   2.120 -0.6309  0.0339 -0.2181
 3208SOL     OW12829   3.863   2.951   2.329  0.5786 -0.0869  0.2508
 3208SOL    HW112830   3.789   3.005   2.359 -0.9682 -1.6243 -0.5724
 3208SOL    HW212831   3.868   2.880   2.393  1.4667  0.0833  0.3774
 3208SOL     MW12832   3.854   2.949   2.341  0.4943 -0.2619  0.1616
 3209SOL     OW12833   5.153   4.020   0.756  0.1843 -0.0810 -0.2293
 3209SOL    HW112834   5.124   4.058   0.839 -0.6724 -1.3361  0.0658
 3209SOL    HW212835   5.082   3.962   0.730 -0.0148  0.9902 -2.3483
 3209SOL     MW12836   5.140   4.018   0.763  0.0491 -0.1046 -0.4627
 3210SOL     OW12837   3.616   2.058   1.520 -0.5912  0.0645  0.5324
 3210SOL    HW112838   3.559   2.003   1.465 -0.2298 -0.2683  0.4860
 3210SOL    HW212839   3.576   2.145   1.517 -1.0502 -0.1466  0.4305
 3210SOL     MW12840   3.604   2.062   1.513 -0.6037 -0.0051  0.5134
 3211SOL     OW12841   1.276   1.504   3.599  0.8540 -0.0756 -0.0973
 3211SOL    HW112842   1.370   1.508   3.617  0.5832  0.3028  1.3103
 3211SOL    HW212843   1.243   1.438   3.659  0.2976 -0.6628 -1.0298
 3211SOL     MW12844   1.284   1.496   3.609  0.7481 -0.1023 -0.0364
 3212SOL     OW12845   0.058   5.474   4.323 -0.3473  0.4884  0.3058
 3212SOL    HW112846   0.006   5.430   4.255 -0.6496  0.1229  0.7721
 3212SOL    HW212847   0.087   5.403   4.380  1.9828  0.4600 -0.7911
 3212SOL     MW12848   0.055   5.459   4.321 -0.0877  0.4380  0.2251
 3213SOL     OW12849  -0.020   1.090   0.074  0.2835 -0.3444 -0.5421
 3213SOL    HW112850   0.043   1.159   0.053  0.8238 -1.0162 -1.1833
 3213SOL    HW212851   0.013   1.052   0.155 -0.4290  0.6187  0.2281
 3213SOL     MW12852  -0.007   1.094   0.082  0.2614 -0.3071 -0.5256
 3214SOL     OW12853   1.004   0.851   5.357  0.4008  0.1686  0.4085
 3214SOL    HW112854   0.951   0.926   5.331 -0.7017 -0.5843  0.4024
 3214SOL    HW212855   1.085   0.860   5.307 -0.3885  0.4704 -0.8673
 3214SOL     MW12856   1.008   0.862   5.347  0.1586  0.1109  0.2444
 3215SOL     OW12857   0.692   2.121   2.662 -0.0721 -0.0846 -0.7325
 3215SOL    HW112858   0.752   2.175   2.610  0.3917 -0.6979 -0.8424
 3215SOL    HW212859   0.696   2.035   2.621  0.9720 -0.8208  0.8136
 3215SOL     MW12860   0.700   2.117   2.650  0.1209 -0.2573 -0.5486
 3216SOL     OW12861   3.868   3.772   2.219 -0.2740  0.0862  0.0162
 3216SOL    HW112862   3.786   3.768   2.170 -0.3580 -1.3338  0.2401
 3216SOL    HW212863   3.934   3.739   2.158  0.5061  2.8491 -0.7944
 3216SOL     MW12864   3.866   3.767   2.205 -0.1849  0.2581 -0.0589
 3217SOL     OW12865   4.422   1.945   1.018 -0.4245 -0.1488 -0.9287
 3217SOL    HW112866   4.403   2.039   1.009  0.5641 -0.0324 -2.2227
 3217SOL    HW212867   4.466   1.937   1.102 -0.3226  0.6024 -0.9041
 3217SOL     MW12868   4.425   1.956   1.027 -0.2849 -0.0378 -1.0912
 3218SOL     OW12869   4.685   1.074   4.173 -0.3849  0.4777  0.2585
 3218SOL    HW112870   4.731   1.147   4.132  0.3002 -0.7126 -1.1952
 3218SOL    HW212871   4.606   1.062   4.120  0.6477 -1.2587 -1.0190
 3218SOL     MW12872   4.681   1.081   4.161 -0.1650  0.1030 -0.0911
 3219SOL     OW12873   5.176   2.675   3.721  0.4698 -0.0851 -0.2339
 3219SOL    HW112874   5.198   2.664   3.814  0.3531 -0.0654 -0.2035
 3219SOL    HW212875   5.100   2.618   3.708  2.0173 -2.1095 -0.9279
 3219SOL     MW12876   5.169   2.666   3.731  0.6529 -0.3417 -0.3188
 3220SOL     OW12877   4.008   4.043   2.991  0.1404  0.0394 -0.3136
 3220SOL    HW112878   3.926   4.010   2.955  0.8011 -0.7346 -1.1726
 3220SOL    HW212879   4.067   4.049   2.916  0.5663  1.6063  0.1001
 3220SOL     MW12880   4.005   4.040   2.977  0.2795  0.1409 -0.3706
 3221SOL     OW12881   0.706   1.937   2.233  0.3801  0.2372  0.2157
 3221SOL    HW112882   0.729   1.976   2.148  0.1275  0.5532  0.2943
 3221SOL    HW212883   0.614   1.913   2.224  0.0840  1.1291  0.7219
 3221SOL     MW12884   0.697   1.939   2.221  0.3098  0.3918  0.2906
 3222SOL     OW12885   1.293   4.788   2.280  0.3022 -0.0615 -0.1413
 3222SOL    HW112886   1.347   4.735   2.221 -0.9219  0.3797 -1.7340
 3222SOL    HW212887   1.351   4.859   2.308  0.8070 -0.0336 -1.1761
 3222SOL     MW12888   1.307   4.790   2.276  0.2101 -0.0014 -0.4776
 3223SOL     OW12889   0.937   4.252   4.060 -0.1682  0.9705 -0.1838
 3223SOL    HW112890   0.887   4.176   4.031 -0.5819  1.4375 -0.7342
 3223SOL    HW212891   0.920   4.319   3.993  1.1725  1.1539 -0.3743
 3223SOL     MW12892   0.928   4.251   4.048 -0.0495  1.0538 -0.2786
 3224SOL     OW12893   5.369   4.477   2.238  0.1639  0.2039 -0.2380
 3224SOL    HW112894   5.435   4.518   2.293  0.8156 -0.7956 -0.2524
 3224SOL    HW212895   5.352   4.392   2.279 -0.5034  0.1000 -0.7016
 3224SOL     MW12896   5.375   4.471   2.250  0.1619  0.0626 -0.2992
 3225SOL     OW12897   4.513   3.536   2.477  0.1506  0.2635 -0.0328
 3225SOL    HW112898   4.584   3.494   2.525  0.0216 -1.1076 -0.9628
 3225SOL    HW212899   4.550   3.555   2.391 -0.8602 -1.4702 -0.9091
 3225SOL     MW12900   4.527   3.533   2.472  0.0047 -0.1340 -0.2640
 3226SOL     OW12901   3.445   3.799   5.063  0.0607  0.4005 -0.5371
 3226SOL    HW112902   3.362   3.821   5.106 -0.2481 -0.8882 -0.4245
 3226SOL    HW212903   3.433   3.709   5.033  0.7423  0.8126 -2.1957
 3226SOL     MW12904   3.433   3.790   5.064  0.1084  0.2883 -0.7350
 3227SOL     OW12905   4.560   5.365   4.990 -0.2876 -0.0850 -0.4393
 3227SOL    HW112906   4.528   5.289   4.941 -1.8632  0.1436  0.1817
 3227SOL    HW212907   4.575   5.331   5.079 -1.0144  0.3244 -0.1543
 3227SOL     MW12908   4.558   5.351   4.995 -0.5824 -0.0034 -0.3233
 3228SOL     OW12909   2.826   4.724   0.467 -0.5283 -0.8857 -0.2351
 3228SOL    HW112910   2.877   4.651   0.500  1.3650  0.4762  0.0150
 3228SOL    HW212911   2.782   4.690   0.389  0.4608 -2.2283 -0.2370
 3228SOL     MW12912   2.827   4.710   0.461 -0.1593 -0.8833 -0.2033
 3229SOL     OW12913   0.526   0.887   4.970  0.0930  0.0130  0.1552
 3229SOL    HW112914   0.434   0.876   4.946  0.2327 -0.1584 -0.3165
 3229SOL    HW212915   0.524   0.910   5.063 -0.4828  1.0266 -0.0940
 3229SOL     MW12916   0.514   0.889   4.979  0.0372  0.1209  0.0630
 3230SOL     OW12917   1.791   4.973   1.784 -0.3344 -0.2596 -0.1981
 3230SOL    HW112918   1.798   4.964   1.879 -1.5019  0.9139  0.0391
 3230SOL    HW212919   1.697   4.967   1.767 -0.1960  0.2131 -1.1917
 3230SOL     MW12920   1.780   4.971   1.794 -0.4661 -0.0489 -0.2949
 3231SOL     OW12921   1.805   2.736   2.588  0.0452 -0.4058 -0.2096
 3231SOL    HW112922   1.729   2.787   2.558  0.2665  1.2465  1.8037
 3231SOL    HW212923   1.772   2.647   2.597 -1.1805 -0.0654 -1.0096
 3231SOL     MW12924   1.791   2.731   2.585 -0.0833 -0.1507 -0.0543
 3232SOL     OW12925   0.880   4.347   4.929  0.2292  0.4223 -0.3355
 3232SOL    HW112926   0.822   4.295   4.984  1.3696 -1.2763 -0.6470
 3232SOL    HW212927   0.872   4.308   4.842  1.0390  0.8189 -0.6002
 3232SOL     MW12928   0.871   4.335   4.925  0.4789  0.2556 -0.4092
 3233SOL     OW12929   5.286   0.475   3.092  0.5148 -0.3815  0.2068
 3233SOL    HW112930   5.290   0.420   3.013 -0.0005  0.0682 -0.1372
 3233SOL    HW212931   5.199   0.514   3.090  0.6957  0.0555  0.7152
 3233SOL     MW12932   5.276   0.473   3.081  0.4720 -0.2680  0.2278
 3234SOL     OW12933   5.241   5.066   4.382 -0.7309 -0.7416  0.3197
 3234SOL    HW112934   5.228   5.064   4.477  1.5039  0.2834  0.7216
 3234SOL    HW212935   5.212   5.152   4.355  0.6502 -0.1914  0.4834
 3234SOL     MW12936   5.236   5.076   4.391 -0.2680 -0.5400  0.3921
 3235SOL     OW12937   3.910   5.350   2.241 -0.3112 -0.2250 -0.1787
 3235SOL    HW112938   3.859   5.348   2.322  1.2974 -0.3407  0.8884
 3235SOL    HW212939   3.938   5.441   2.232 -0.7170 -0.1564 -0.7654
 3235SOL     MW12940   3.907   5.361   2.251 -0.1572 -0.2310 -0.1172
 3236SOL     OW12941   0.318   4.740   5.222 -0.0905 -0.2277 -0.1814
 3236SOL    HW112942   0.246   4.790   5.262  0.5756  1.6812 -1.2604
 3236SOL    HW212943   0.359   4.695   5.296 -1.7903 -0.5763  0.5882
 3236SOL     MW12944   0.314   4.741   5.237 -0.2228 -0.0280 -0.2210
 3237SOL     OW12945   3.899   2.522   0.763  0.3441  0.0919  0.2273
 3237SOL    HW112946   3.857   2.603   0.791  0.4549 -0.3379  1.7265
 3237SOL    HW212947   3.828   2.458   0.759  0.5181 -0.1531  0.8202
 3237SOL     MW12948   3.885   2.524   0.766  0.3805  0.0055  0.4951
 3238SOL     OW12949   1.095   0.043   0.394 -0.4631  0.2756 -0.1304
 3238SOL    HW112950   1.044  -0.007   0.458 -0.8538  0.8234 -0.0037
 3238SOL    HW212951   1.121  -0.022   0.328 -2.0865  0.1240 -0.6683
 3238SOL     MW12952   1.091   0.028   0.393 -0.7209  0.3263 -0.1830
 3239SOL     OW12953   2.736   1.844   3.326 -0.3653  0.0348  0.2970
 3239SOL    HW112954   2.704   1.811   3.410 -3.8899  0.0617 -0.9015
 3239SOL    HW212955   2.686   1.797   3.260  1.8969  0.4324 -1.8662
 3239SOL     MW12956   2.726   1.834   3.328 -0.5269  0.0891 -0.1333
 3240SOL     OW12957   2.413   3.468   4.758  0.1241 -0.7152  0.0922
 3240SOL    HW112958   2.376   3.479   4.846  0.9882  1.3976  0.2326
 3240SOL    HW212959   2.503   3.498   4.766  0.6213 -1.7521 -1.2416
 3240SOL     MW12960   2.420   3.473   4.771  0.2984 -0.5774 -0.0605
 3241SOL     OW12961   1.170   3.411   1.691 -0.3268  0.1752  0.0594
 3241SOL    HW112962   1.247   3.392   1.637 -1.4980  2.6914 -2.7363
 3241SOL    HW212963   1.184   3.500   1.722 -2.5320  1.0964 -1.3972
 3241SOL     MW12964   1.182   3.420   1.688 -0.7590  0.6153 -0.4849
 3242SOL     OW12965   3.847   3.016   2.762 -0.6111 -0.3146 -0.1119
 3242SOL    HW112966   3.810   3.091   2.809  2.3206  0.7361  0.7437
 3242SOL    HW212967   3.785   2.945   2.775 -2.0668  1.1924  1.5266
 3242SOL     MW12968   3.835   3.017   2.769 -0.4222  0.0128  0.2074
 3243SOL     OW12969   1.317   0.878   2.070 -0.0904  1.0908  0.2651
 3243SOL    HW112970   1.327   0.963   2.028  0.9392  1.4489  1.1824
 3243SOL    HW212971   1.309   0.897   2.163 -2.1163  0.2934  0.3011
 3243SOL     MW12972   1.317   0.891   2.077 -0.2180  1.0346  0.3872
 3244SOL     OW12973   1.600  -0.000   2.055  0.0302  0.2220 -0.4487
 3244SOL    HW112974   1.534   0.068   2.046 -0.3953 -0.2061 -0.6350
 3244SOL    HW212975   1.668   0.024   1.993  0.5878  1.2686  0.5274
 3244SOL     MW12976   1.600   0.011   2.046  0.0471  0.3012 -0.3476
 3245SOL     OW12977   4.325   3.819   3.709 -0.3408  0.0684  0.0629
 3245SOL    HW112978   4.380   3.743   3.695 -0.3729  0.2851 -1.3374
 3245SOL    HW212979   4.348   3.850   3.797  0.7738 -0.6428  0.0317
 3245SOL     MW12980   4.335   3.814   3.719 -0.2022  0.0051 -0.1203
 3246SOL     OW12981   1.773   5.072   5.046  0.4915 -0.0791  0.0070
 3246SOL    HW112982   1.712   5.010   5.007 -0.7816  0.6204  0.8132
 3246SOL    HW212983   1.795   5.033   5.131  0.2206  0.2272  0.2222
 3246SOL     MW12984   1.768   5.059   5.052  0.2938  0.0496  0.1378
 3247SOL     OW12985   4.189   1.602   2.091  0.4514 -0.2075 -0.0382
 3247SOL    HW112986   4.186   1.583   2.185 -1.2993 -0.9505 -0.2159
 3247SOL    HW212987   4.272   1.649   2.079  1.2752 -1.1443  1.6648
 3247SOL     MW12988   4.200   1.606   2.101  0.3327 -0.4225  0.1570
 3248SOL     OW12989   3.055   2.082   0.115  0.4127  0.1511 -0.4990
 3248SOL    HW112990   3.093   2.159   0.158 -2.0489  0.6630  0.9743
 3248SOL    HW212991   3.121   2.055   0.051  1.9251  2.6655 -0.1385
 3248SOL     MW12992   3.069   2.088   0.112  0.2912  0.5385 -0.2642
 3249SOL     OW12993   0.780   4.144   3.145  0.1857 -0.3955  0.0659
 3249SOL    HW112994   0.766   4.230   3.106 -1.0363  0.5079  2.3073
 3249SOL    HW212995   0.848   4.157   3.211 -1.1572 -0.6964  1.5835
 3249SOL     MW12996   0.787   4.157   3.149 -0.1426 -0.3184  0.5471
 3250SOL     OW12997   0.880   3.790   1.708  0.5955  0.0295  0.4850
 3250SOL    HW112998   0.853   3.825   1.623  0.5790 -2.5569 -0.6576
 3250SOL    HW212999   0.976   3.790   1.705  0.5910 -1.1103 -0.0273
 3250SOL     MW13000   0.889   3.794   1.697  0.5928 -0.4475  0.2732
 3251SOL     OW13001   2.347   2.623   0.765 -0.2128  0.4637  0.0292
 3251SOL    HW113002   2.314   2.671   0.841  2.0777 -0.8570  1.9718
 3251SOL    HW213003   2.410   2.683   0.724 -1.5609  1.2363 -1.0190
 3251SOL     MW13004   2.350   2.637   0.769 -0.0921  0.3935  0.1437
 3252SOL     OW13005   1.059   2.685   0.300 -0.2894  0.1478  0.0902
 3252SOL    HW113006   1.061   2.624   0.374 -2.7478  0.9951  0.9527
 3252SOL    HW213007   1.099   2.637   0.228 -1.5674 -2.2853  0.8949
 3252SOL     MW13008   1.064   2.671   0.300 -0.7677 -0.0552  0.3036
 3253SOL     OW13009   2.256   1.496   4.262 -0.0832  0.0362  0.1411
 3253SOL    HW113010   2.288   1.408   4.279 -1.3055 -0.1691  1.6776
 3253SOL    HW213011   2.181   1.484   4.204 -0.9827 -0.0923  1.2886
 3253SOL     MW13012   2.250   1.484   4.257 -0.3548 -0.0065  0.4847
 3254SOL     OW13013   0.828   1.828   5.101 -0.0425  0.0399 -0.6871
 3254SOL    HW113014   0.780   1.888   5.159 -0.1985  1.5628 -2.2803
 3254SOL    HW213015   0.766   1.758   5.082 -0.4952  0.2937 -0.1740
 3254SOL     MW13016   0.814   1.827   5.106 -0.1204  0.2673 -0.8254
 3255SOL     OW13017   4.231   0.115   0.379  0.2260 -0.5253  0.2400
 3255SOL    HW113018   4.191   0.094   0.295 -0.7226 -0.1672  0.5853
 3255SOL    HW213019   4.186   0.057   0.442  1.4560 -1.3314  0.3965
 3255SOL     MW13020   4.220   0.105   0.377  0.2620 -0.5826  0.3042
 3256SOL     OW13021   0.274   2.638   1.960  0.0680  0.0830 -0.2368
 3256SOL    HW113022   0.326   2.561   1.983  0.8757  0.9720  1.0398
 3256SOL    HW213023   0.295   2.656   1.869  1.8627  0.2885  0.1843
 3256SOL     MW13024   0.283   2.630   1.951  0.4012  0.2231 -0.0194
 3257SOL     OW13025   0.089   4.254   2.151 -0.4176 -0.4415  0.0613
 3257SOL    HW113026   0.020   4.196   2.119 -0.0619 -0.5366 -0.5595
 3257SOL    HW213027   0.163   4.237   2.092  0.4396 -1.0047  1.2432
 3257SOL     MW13028   0.090   4.244   2.139 -0.2623 -0.5258  0.1331
 3258SOL     OW13029   0.174   3.313   2.263 -0.2128  0.3221  0.1645
 3258SOL    HW113030   0.266   3.298   2.243 -0.4062  0.9666 -1.3466
 3258SOL    HW213031   0.127   3.263   2.196 -1.0276 -1.0709  1.6736
 3258SOL     MW13032   0.180   3.304   2.252 -0.3419  0.2263  0.1643
 3259SOL     OW13033   3.269   4.585   4.821  0.0427 -0.0798 -0.1973
 3259SOL    HW113034   3.290   4.598   4.913 -1.2400  0.8602 -0.0039
 3259SOL    HW213035   3.330   4.643   4.774 -0.4597  0.7718  0.1846
 3259SOL     MW13036   3.280   4.594   4.826 -0.1858  0.1495 -0.1237
 3260SOL     OW13037   0.298   4.217   0.996  0.1066 -0.1904  0.3497
 3260SOL    HW113038   0.224   4.233   0.937  0.7953  2.4189  0.0606
 3260SOL    HW213039   0.359   4.164   0.944 -0.4434 -0.1464 -0.3465
 3260SOL     MW13040   0.297   4.212   0.982  0.1244  0.1493  0.2236
 3261SOL     OW13041   3.328   0.666   4.071 -0.3417  0.5176  0.2744
 3261SOL    HW113042   3.303   0.595   4.012 -1.1795  0.1480  1.0586
 3261SOL    HW213043   3.403   0.631   4.120 -0.5952  0.2542  0.4814
 3261SOL     MW13044   3.335   0.653   4.070 -0.4814  0.4365  0.4013
 3262SOL     OW13045   1.842   0.548   4.302 -0.2068 -0.0403  0.0694
 3262SOL    HW113046   1.859   0.634   4.340 -2.1365  1.3934 -2.0478
 3262SOL    HW213047   1.927   0.520   4.267  0.3930  1.0996  0.5437
 3262SOL     MW13048   1.855   0.555   4.303 -0.3771  0.2892 -0.1409
 3263SOL     OW13049   4.365   3.605   5.394 -0.1533  0.3104  0.0138
 3263SOL    HW113050   4.433   3.554   5.438 -0.7381 -0.6948 -0.2177
 3263SOL    HW213051   4.321   3.652   5.464 -1.3374 -1.5833  0.6255
 3263SOL     MW13052   4.368   3.605   5.409 -0.3798 -0.0607  0.0625
 3264SOL     OW13053   4.998   3.421   2.966  0.3840  0.0641  0.1109
 3264SOL    HW113054   5.059   3.366   3.015  2.7757  1.0787 -1.5577
 3264SOL    HW213055   5.001   3.387   2.877 -0.0374  1.3120 -0.4025
 3264SOL     MW13056   5.006   3.409   2.961  0.6363  0.3537 -0.1685
 3265SOL     OW13057   0.248   0.253   5.070 -0.4669 -0.1181 -0.1542
 3265SOL    HW113058   0.335   0.262   5.108 -0.9545  1.4365  0.7125
 3265SOL    HW213059   0.191   0.231   5.144 -1.0799  0.7235 -0.3480
 3265SOL     MW13060   0.252   0.252   5.084 -0.6078  0.1886 -0.0681
 3266SOL     OW13061   1.780   4.638   2.552  0.1221 -0.0465  0.4114
 3266SOL    HW113062   1.811   4.714   2.601 -1.4719 -0.4932  2.2463
 3266SOL    HW213063   1.699   4.668   2.509  2.1777  0.7537 -3.3047
 3266SOL     MW13064   1.773   4.652   2.553  0.1812 -0.0013  0.1706
 3267SOL     OW13065   2.303   1.917   0.402  1.0105 -0.0855  0.0998
 3267SOL    HW113066   2.362   1.873   0.341 -0.4781 -1.7221 -0.2440
 3267SOL    HW213067   2.281   1.999   0.359  0.3461 -1.0103 -1.4112
 3267SOL     MW13068   2.308   1.922   0.388  0.7349 -0.4134 -0.1377
 3268SOL     OW13069   2.518   2.855   3.657  0.0191 -0.2687 -0.2410
 3268SOL    HW113070   2.573   2.909   3.600  0.4169 -1.1288 -0.6815
 3268SOL    HW213071   2.446   2.913   3.682  1.0172  0.8305  0.2062
 3268SOL     MW13072   2.516   2.869   3.653  0.1978 -0.2381 -0.2402
 3269SOL     OW13073   0.347   0.923   1.161  0.2295  0.0771 -0.2549
 3269SOL    HW113074   0.313   1.008   1.187  0.9175 -0.1051  1.3157
 3269SOL    HW213075   0.369   0.933   1.068 -2.5480  0.6620 -0.9501
 3269SOL     MW13076   0.345   0.935   1.152 -0.0379  0.1286 -0.1428
 3270SOL     OW13077   2.751   1.589   4.015 -1.0358  0.1717  0.5769
 3270SOL    HW113078   2.687   1.549   4.074 -0.6668 -0.5769  0.4826
 3270SOL    HW213079   2.818   1.522   4.004  0.4686  1.4133  1.7465
 3270SOL     MW13080   2.751   1.576   4.021 -0.7960  0.2348  0.7145
 3271SOL     OW13081   4.905   1.241   4.038  0.0073  0.3228 -1.0327
 3271SOL    HW113082   4.929   1.327   4.074  1.7667 -0.0571 -1.2298
 3271SOL    HW213083   4.956   1.179   4.089 -0.4121 -0.5336 -1.6340
 3271SOL     MW13084   4.914   1.244   4.049  0.1788  0.1645 -1.1349
 3272SOL     OW13085   1.157   2.367   0.820  0.1065 -0.0480 -0.8675
 3272SOL    HW113086   1.186   2.457   0.835 -0.2364 -0.2331  1.1454
 3272SOL    HW213087   1.235   2.314   0.836  0.0003 -0.1907 -0.8204
 3272SOL     MW13088   1.171   2.372   0.824  0.0490 -0.0900 -0.6038
 3273SOL     OW13089   5.136   2.567   2.369  0.4285  0.1648 -0.4969
 3273SOL    HW113090   5.099   2.569   2.457 -0.9614  0.1549 -1.0594
 3273SOL    HW213091   5.195   2.491   2.369 -1.1583 -1.1302 -0.1723
 3273SOL     MW13092   5.139   2.557   2.380  0.0475 -0.0023 -0.5273
 3274SOL     OW13093   2.126   5.114   1.626 -0.4831 -0.1767 -0.1188
 3274SOL    HW113094   2.151   5.199   1.591 -0.2682 -0.5601 -0.9226
 3274SOL    HW213095   2.046   5.091   1.578 -1.7532  0.4906  1.5599
 3274SOL     MW13096   2.119   5.122   1.616 -0.6182 -0.1404 -0.0068
 3275SOL     OW13097   1.952   4.815   1.621 -0.5140 -0.2459  0.1766
 3275SOL    HW113098   1.884   4.860   1.671 -0.4939 -0.7391  0.6595
 3275SOL    HW213099   1.909   4.735   1.590 -0.3191 -0.2777 -0.0092
 3275SOL     MW13100   1.938   4.810   1.623 -0.4865 -0.3131  0.2146
 3276SOL     OW13101   5.139   0.799   1.209  0.3726  0.1490  0.1621
 3276SOL    HW113102   5.171   0.710   1.227 -0.8321 -0.8816 -2.3165
 3276SOL    HW213103   5.211   0.841   1.162  1.4775  1.0480  2.4938
 3276SOL     MW13104   5.153   0.793   1.205  0.3599  0.1322  0.1433
 3277SOL     OW13105   0.161   5.111   0.388  0.2738  0.4328 -0.1415
 3277SOL    HW113106   0.254   5.125   0.407  0.2267  0.6679 -0.0834
 3277SOL    HW213107   0.151   5.015   0.388  0.3065  0.4168  0.8722
 3277SOL     MW13108   0.172   5.100   0.391  0.2719  0.4608 -0.0043
 3278SOL     OW13109   1.293   4.910   1.864  0.0090 -0.0247 -0.1487
 3278SOL    HW113110   1.234   4.982   1.885  1.1175  1.5733 -2.1525
 3278SOL    HW213111   1.236   4.834   1.853 -1.2434  0.6407  1.4495
 3278SOL     MW13112   1.278   4.909   1.865 -0.0094  0.2650 -0.2006
 3279SOL     OW13113   1.905   1.661   4.109 -0.3881 -0.5644  0.0067
 3279SOL    HW113114   1.971   1.602   4.072 -0.5342 -0.4380 -0.4643
 3279SOL    HW213115   1.956   1.729   4.153 -0.1782 -0.2322 -0.7186
 3279SOL     MW13116   1.920   1.662   4.110 -0.3800 -0.5057 -0.1464
 3280SOL     OW13117   4.912   2.821   1.995 -0.0090 -0.0684  0.2465
 3280SOL    HW113118   4.981   2.828   2.061  0.1906 -0.2219  0.0587
 3280SOL    HW213119   4.836   2.789   2.043 -0.6257  2.2247  0.9023
 3280SOL     MW13120   4.911   2.817   2.010 -0.0624  0.2055  0.3064
 3281SOL     OW13121   1.968   3.442   4.862 -0.4538  0.2787  0.1822
 3281SOL    HW113122   1.879   3.414   4.885 -1.2091  1.1011 -1.5249
 3281SOL    HW213123   1.998   3.377   4.799 -0.3209  0.6594 -0.1485
 3281SOL     MW13124   1.961   3.430   4.857 -0.5335  0.4327 -0.0787
 3282SOL     OW13125   2.357   2.120   0.092 -0.1900 -0.5273 -1.1268
 3282SOL    HW113126   2.377   2.124  -0.001  0.5267  0.4104 -0.9478
 3282SOL    HW213127   2.442   2.128   0.135 -0.1837 -3.4247 -0.3910
 3282SOL     MW13128   2.371   2.121   0.086 -0.0974 -0.7782 -1.0097
 3283SOL     OW13129   0.706   1.778   0.892  0.4507  0.5094 -0.3264
 3283SOL    HW113130   0.730   1.789   0.800 -2.0238 -1.2731 -1.2930
 3283SOL    HW213131   0.610   1.780   0.893  0.4060  0.7171  2.2678
 3283SOL     MW13132   0.697   1.779   0.880  0.1282  0.3078 -0.1180
 3284SOL     OW13133   5.420   4.577   3.740  0.4874 -0.0209 -0.1098
 3284SOL    HW113134   5.440   4.664   3.707 -0.2832  0.6421  1.0899
 3284SOL    HW213135   5.387   4.529   3.664 -1.3860  1.4954 -0.3308
 3284SOL     MW13136   5.419   4.582   3.726  0.1490  0.2581  0.0155
 3285SOL     OW13137   3.646   0.679   5.161 -0.5848 -0.6878  0.4943
 3285SOL    HW113138   3.575   0.633   5.206 -1.5584  0.6186  0.3780
 3285SOL    HW213139   3.616   0.770   5.157  1.2129 -0.0575  0.6331
 3285SOL     MW13140   3.633   0.685   5.166 -0.4793 -0.4399  0.4972
 3286SOL     OW13141   0.526   0.657   3.781  0.1022 -0.1659 -0.6069
 3286SOL    HW113142   0.559   0.568   3.768 -1.0448 -0.7956  0.5752
 3286SOL    HW213143   0.464   0.649   3.853  0.4757  1.7280 -0.0275
 3286SOL     MW13144   0.522   0.645   3.789  0.0032 -0.0041 -0.3814
 3287SOL     OW13145   3.978   2.663   3.794 -0.1392 -0.0885  0.1111
 3287SOL    HW113146   3.938   2.589   3.748  1.3603  0.7661 -2.7392
 3287SOL    HW213147   4.053   2.625   3.840 -0.7411 -0.7071  0.5968
 3287SOL     MW13148   3.982   2.648   3.794 -0.0243 -0.0583 -0.1916
 3288SOL     OW13149   4.955   3.109   2.604  0.3193 -0.2491 -0.2760
 3288SOL    HW113150   4.940   3.016   2.622 -3.1802  0.0363 -1.0431
 3288SOL    HW213151   4.915   3.124   2.519  0.0067  2.1240  0.2126
 3288SOL     MW13152   4.948   3.099   2.596 -0.1687  0.0912 -0.3116
 3289SOL     OW13153   0.141   0.541   5.020 -0.0089 -0.0047 -0.2025
 3289SOL    HW113154   0.092   0.529   4.939 -1.1127 -1.5153  0.6259
 3289SOL    HW213155   0.191   0.459   5.030  1.7742  1.0050 -0.3938
 3289SOL     MW13156   0.141   0.529   5.011  0.0781 -0.0688 -0.1210
 3290SOL     OW13157   1.265   1.072   1.208 -0.7010  0.1848 -0.0422
 3290SOL    HW113158   1.191   1.131   1.220 -0.2625  1.1381 -1.7750
 3290SOL    HW213159   1.281   1.072   1.114  1.1956 -0.4027  0.2458
 3290SOL     MW13160   1.257   1.079   1.198 -0.4021  0.2316 -0.2271
 3291SOL     OW13161   2.394   2.063   1.682 -0.0185 -0.6495 -0.1817
 3291SOL    HW113162   2.310   2.108   1.693  0.5379  0.3382  0.1104
 3291SOL    HW213163   2.404   2.053   1.587 -0.5418 -0.9325 -0.2124
 3291SOL     MW13164   2.385   2.067   1.671 -0.0143 -0.5593 -0.1483
 3292SOL     OW13165   4.320   3.386   3.046 -0.1409  0.1722  0.0553
 3292SOL    HW113166   4.400   3.438   3.040  0.4408 -0.7685 -0.9257
 3292SOL    HW213167   4.336   3.325   3.118 -0.0104  0.0572 -0.0697
 3292SOL     MW13168   4.333   3.385   3.054 -0.0497  0.0371 -0.0863
 3293SOL     OW13169   0.750   2.205   0.848 -0.0786  0.4477 -0.0148
 3293SOL    HW113170   0.825   2.207   0.788  0.5143 -0.2426  0.6914
 3293SOL    HW213171   0.785   2.173   0.931 -1.6102 -2.4360 -0.3497
 3293SOL     MW13172   0.764   2.201   0.851 -0.1988 -0.0099  0.0328
 3294SOL     OW13173   4.839   0.511   1.059 -0.1168  0.4053  0.1462
 3294SOL    HW113174   4.784   0.460   1.118 -0.6640  0.5206 -0.2579
 3294SOL    HW213175   4.785   0.523   0.981  1.1800 -1.1918 -1.0826
 3294SOL     MW13176   4.825   0.506   1.056 -0.0208  0.2156 -0.0628
 3295SOL     OW13177   2.079   2.718   0.121 -0.1756  0.1686  0.2057
 3295SOL    HW113178   2.069   2.751   0.032 -1.1092 -1.7026 -0.4429
 3295SOL    HW213179   2.020   2.772   0.174 -0.4898  0.5403 -0.5096
 3295SOL     MW13180   2.070   2.729   0.116 -0.3354 -0.0233  0.0311
 3296SOL     OW13181   0.025   4.837   1.232 -0.0010  0.9993  0.6665
 3296SOL    HW113182   0.044   4.931   1.234 -0.3745  1.0749  1.3411
 3296SOL    HW213183   0.081   4.802   1.164 -0.1698  1.7844  0.1088
 3296SOL     MW13184   0.034   4.845   1.224 -0.0705  1.1095  0.6815
 3297SOL     OW13185   2.879   2.137   5.227  0.1038 -0.1800 -0.2934
 3297SOL    HW113186   2.910   2.220   5.192 -0.7027  0.6808  1.0029
 3297SOL    HW213187   2.959   2.086   5.240  0.8120  1.1895  0.9218
 3297SOL     MW13188   2.893   2.141   5.224  0.0912  0.1055  0.0281
 3298SOL     OW13189   2.726   5.043   4.997 -0.2684 -0.3867 -1.1900
 3298SOL    HW113190   2.696   5.041   5.088  0.9469  0.2262 -0.7529
 3298SOL    HW213191   2.759   4.956   4.980 -0.5551 -0.5207 -1.0748
 3298SOL     MW13192   2.726   5.032   5.007 -0.1495 -0.3254 -1.1193
 3299SOL     OW13193   1.960   0.855   3.041  0.1921  0.2301  0.1090
 3299SOL    HW113194   1.875   0.845   3.083  0.6448 -2.4520  0.5635
 3299SOL    HW213195   2.008   0.913   3.100 -1.2169  1.6434 -0.0678
 3299SOL     MW13196   1.955   0.861   3.054  0.0697  0.0677  0.1446
 3300SOL     OW13197   2.005   1.834   4.282 -0.6264 -0.1675  0.0796
 3300SOL    HW113198   2.058   1.776   4.336  0.9144  0.1982 -0.9718
 3300SOL    HW213199   1.952   1.883   4.345 -0.0052 -0.8195  1.1462
 3300SOL     MW13200   2.005   1.833   4.297 -0.3496 -0.2041  0.0815
 3301SOL     OW13201   5.079   1.282   5.280 -0.2225 -0.2095 -0.2213
 3301SOL    HW113202   5.116   1.358   5.325  1.6131 -1.2570  0.1548
 3301SOL    HW213203   5.121   1.207   5.322 -1.2150 -1.3982 -1.2629
 3301SOL     MW13204   5.089   1.282   5.291 -0.1146 -0.4957 -0.3065
 3302SOL     OW13205   0.607   0.549   3.492  0.2864  0.2066 -0.0734
 3302SOL    HW113206   0.578   0.639   3.507  0.5671  0.0157  1.7776
 3302SOL    HW213207   0.639   0.519   3.577 -1.2749 -2.1934 -0.2309
 3302SOL     MW13208   0.608   0.557   3.505  0.1224 -0.1251  0.1434
 3303SOL     OW13209   5.467   4.547   5.278 -0.1763 -0.4611  0.0405
 3303SOL    HW113210   5.376   4.557   5.308 -0.0903  0.9747 -0.1331
 3303SOL    HW213211   5.518   4.536   5.358 -0.4150 -0.6015  0.1756
 3303SOL     MW13212   5.462   4.547   5.292 -0.1959 -0.2953  0.0356
 3304SOL     OW13213   1.721   3.488   2.267  0.1213 -0.2135  0.0940
 3304SOL    HW113214   1.691   3.558   2.209  0.3350 -2.6584 -3.1961
 3304SOL    HW213215   1.653   3.483   2.335 -2.2264  0.3022 -2.0735
 3304SOL     MW13216   1.709   3.496   2.268 -0.1518 -0.4605 -0.6046
 3305SOL     OW13217   1.410   3.884   2.049  0.1819 -0.5430  0.2979
 3305SOL    HW113218   1.365   3.914   1.970  0.3008 -1.7441 -0.2462
 3305SOL    HW213219   1.426   3.964   2.099 -1.5254  0.0512 -0.0228
 3305SOL     MW13220   1.406   3.898   2.045 -0.0214 -0.6207  0.1872
 3306SOL     OW13221   1.484   3.906   5.290  0.4429 -0.8455  0.1220
 3306SOL    HW113222   1.525   3.866   5.367 -3.3940 -0.9026  2.3798
 3306SOL    HW213223   1.427   3.837   5.256 -0.8094  0.3901 -0.3706
 3306SOL     MW13224   1.482   3.892   5.296 -0.2085 -0.6947  0.3480
 3307SOL     OW13225   3.538   4.511   1.986 -0.2650  0.3162 -0.0281
 3307SOL    HW113226   3.451   4.534   2.019  0.1326  1.4393  0.2539
 3307SOL    HW213227   3.557   4.426   2.027 -0.9153  0.4118  0.4862
 3307SOL     MW13228   3.529   4.503   1.995 -0.2974  0.4722  0.0738
 3308SOL     OW13229   1.486   2.786   1.051  0.2113 -0.0431  0.0122
 3308SOL    HW113230   1.397   2.812   1.075 -1.1224 -2.9545 -1.2514
 3308SOL    HW213231   1.507   2.714   1.110  1.8463  0.6868  0.3885
 3308SOL     MW13232   1.478   2.780   1.062  0.2499 -0.3224 -0.1014
 3309SOL     OW13233   0.602   2.767   4.455 -0.0726 -0.3065  0.4583
 3309SOL    HW113234   0.579   2.674   4.457 -0.0205 -0.3374 -0.1324
 3309SOL    HW213235   0.613   2.792   4.546 -0.4028 -0.8052  0.6334
 3309SOL     MW13236   0.601   2.759   4.467 -0.1082 -0.3743  0.4051
 3310SOL     OW13237   1.707   1.052   3.453 -0.1256 -0.3127  0.3128
 3310SOL    HW113238   1.790   1.099   3.458 -0.9307  1.5745 -2.1316
 3310SOL    HW213239   1.721   0.987   3.384 -0.5664 -0.2404  0.1552
 3310SOL     MW13240   1.720   1.050   3.445 -0.2851 -0.0618 -0.0203
 3311SOL     OW13241   2.667   0.475   2.539 -0.4533  0.7091  0.3945
 3311SOL    HW113242   2.591   0.510   2.585  0.0589  0.8938  1.1199
 3311SOL    HW213243   2.738   0.536   2.561  0.1734 -0.1111  0.6838
 3311SOL     MW13244   2.666   0.487   2.547 -0.3075  0.6277  0.5244
 3312SOL     OW13245   2.784   4.710   3.970 -0.2888  0.1857  0.1759
 3312SOL    HW113246   2.818   4.766   3.900 -0.9858 -0.2082 -0.4964
 3312SOL    HW213247   2.697   4.744   3.989 -0.7961 -0.7540 -0.3680
 3312SOL     MW13248   2.777   4.722   3.963 -0.4430  0.0150  0.0202
 3313SOL     OW13249   0.036   2.942   3.966 -0.8356  0.3756  0.0982
 3313SOL    HW113250   0.036   2.961   3.872  0.7651 -0.8777 -0.1982
 3313SOL    HW213251   0.118   2.979   3.998  0.0863 -1.8110  0.3900
 3313SOL     MW13252   0.046   2.949   3.958 -0.5126 -0.0647  0.0976
 3314SOL     OW13253   0.884   3.125   3.162 -0.1309 -0.2532 -0.0830
 3314SOL    HW113254   0.909   3.185   3.092 -1.1424  0.4018  0.1016
 3314SOL    HW213255   0.790   3.110   3.149 -0.4019  0.0966  1.2726
 3314SOL     MW13256   0.875   3.131   3.152 -0.2951 -0.1246  0.1141
 3315SOL     OW13257   2.554   1.096   1.390  0.2175  0.0337 -0.4973
 3315SOL    HW113258   2.547   1.120   1.482  0.3564  1.6308 -0.8741
 3315SOL    HW213259   2.465   1.070   1.365 -0.6542  2.8596 -0.7213
 3315SOL     MW13260   2.542   1.096   1.398  0.1237  0.5999 -0.5742
 3316SOL     OW13261   2.102   1.259   1.412 -0.0909 -0.1708 -0.0744
 3316SOL    HW113262   2.159   1.322   1.369  1.0736 -0.6702  0.7058
 3316SOL    HW213263   2.044   1.312   1.466  0.1593  0.2946 -0.2600
 3316SOL     MW13264   2.102   1.274   1.414  0.0902 -0.1752  0.0017
 3317SOL     OW13265   1.215   0.481   1.867  0.3541  0.5115  0.0628
 3317SOL    HW113266   1.164   0.505   1.945 -0.3157  1.1680 -0.5563
 3317SOL    HW213267   1.170   0.526   1.795  0.9022 -0.1728 -0.7152
 3317SOL     MW13268   1.202   0.490   1.868  0.3385  0.5079 -0.1160
 3318SOL     OW13269   0.959   2.392   0.027 -0.3762  0.0363  0.3734
 3318SOL    HW113270   0.915   2.313  -0.005  0.8146 -0.3248 -0.4557
 3318SOL    HW213271   0.926   2.462  -0.029 -0.2284 -0.1613  0.0328
 3318SOL     MW13272   0.949   2.391   0.016 -0.2049 -0.0352  0.2237
 3319SOL     OW13273   4.777   1.025   2.046  0.3150  0.5055 -0.4212
 3319SOL    HW113274   4.786   1.079   1.967  0.1280  1.0965 -0.0430
 3319SOL    HW213275   4.867   1.012   2.076  0.2800  3.4183  1.3468
 3319SOL     MW13276   4.789   1.031   2.040  0.2866  0.9540 -0.1465
 3320SOL     OW13277   2.657   1.706   2.427  0.0433  0.0538  0.2092
 3320SOL    HW113278   2.744   1.724   2.463 -0.0435 -0.0375  0.4683
 3320SOL    HW213279   2.597   1.751   2.487 -0.0610  0.5114 -0.2335
 3320SOL     MW13280   2.661   1.714   2.440  0.0188  0.1007  0.1857
 3321SOL     OW13281   1.030   1.521   5.004  0.0476 -0.3752  0.2027
 3321SOL    HW113282   1.047   1.434   4.969  0.3384 -0.1526 -0.2197
 3321SOL    HW213283   0.940   1.541   4.977  0.2166 -0.2690 -0.2941
 3321SOL     MW13284   1.021   1.513   4.996  0.1064 -0.3331  0.0851
 3322SOL     OW13285   4.539   2.749   1.629  0.3576 -0.0846 -0.3055
 3322SOL    HW113286   4.517   2.708   1.713 -0.0340 -0.4188 -0.5676
 3322SOL    HW213287   4.552   2.675   1.569  0.3654  0.1593 -0.6088
 3322SOL     MW13288   4.538   2.734   1.632  0.3084 -0.0962 -0.3779
 3323SOL     OW13289   3.654   4.855   1.020  0.1984 -0.4497  0.1281
 3323SOL    HW113290   3.629   4.879   0.930  2.6096  0.7411 -0.3073
 3323SOL    HW213291   3.697   4.934   1.054 -0.8024 -0.8272  2.4197
 3323SOL     MW13292   3.656   4.868   1.013  0.3790 -0.3456  0.3657
 3324SOL     OW13293   4.754   0.758   1.998 -0.7939 -0.3230  0.0032
 3324SOL    HW113294   4.761   0.715   2.083  0.4212  0.1129  0.1485
 3324SOL    HW213295   4.744   0.851   2.019  0.2754 -0.1231 -0.3140
 3324SOL     MW13296   4.754   0.765   2.012 -0.5015 -0.2416 -0.0188
 3325SOL     OW13297   5.225   1.088   5.369 -0.5415  0.5277  0.8704
 3325SOL    HW113298   5.313   1.085   5.408  1.3539  1.8144 -2.8647
 3325SOL    HW213299   5.209   0.998   5.341 -0.0610  0.4487  0.8336
 3325SOL     MW13300   5.234   1.076   5.371 -0.2373  0.6823  0.3876
 3326SOL     OW13301   5.435   4.443   0.382 -0.1577  0.0614  0.0731
 3326SOL    HW113302   5.425   4.386   0.306  0.3525  2.3277 -1.8114
 3326SOL    HW213303   5.525   4.476   0.375  0.1490 -0.2301  2.1008
 3326SOL     MW13304   5.446   4.440   0.371 -0.0531  0.3142  0.0915
 3327SOL     OW13305   2.487   1.705   3.186  0.5661 -0.0233 -0.6848
 3327SOL    HW113306   2.440   1.771   3.134  0.1682 -0.1165 -0.4475
 3327SOL    HW213307   2.535   1.654   3.122  0.0133 -0.1890 -0.9765
 3327SOL     MW13308   2.487   1.707   3.171  0.4444 -0.0564 -0.6918
 3328SOL     OW13309   5.283   2.654   3.961  0.4097  0.0764  0.0374
 3328SOL    HW113310   5.251   2.589   4.024 -1.2891  0.8988  0.0786
 3328SOL    HW213311   5.378   2.647   3.966  0.3269 -0.3775  2.1990
 3328SOL     MW13312   5.291   2.645   3.970  0.1816  0.1236  0.3194
 3329SOL     OW13313   1.419   5.132   3.859 -0.4550 -0.1721 -0.1237
 3329SOL    HW113314   1.369   5.213   3.869 -2.2635 -1.4086  1.3193
 3329SOL    HW213315   1.397   5.101   3.771 -2.1386 -0.5904  0.4118
 3329SOL     MW13316   1.410   5.138   3.849 -0.9020 -0.3840  0.1296
 3330SOL     OW13317   1.630   1.771   1.725 -0.4730  0.2189  0.4106
 3330SOL    HW113318   1.636   1.738   1.814  0.9551 -1.3725 -0.2447
 3330SOL    HW213319   1.712   1.819   1.711  0.4398 -1.5994 -0.8055
 3330SOL     MW13320   1.641   1.773   1.734 -0.1734 -0.2176  0.1710
 3331SOL     OW13321   2.700   0.136   4.393  0.0809  0.3154 -0.1548
 3331SOL    HW113322   2.776   0.090   4.427 -0.7679  0.1458  1.6631
 3331SOL    HW213323   2.735   0.218   4.359  1.1560 -0.0736 -0.0341
 3331SOL     MW13324   2.714   0.141   4.393  0.1099  0.2439  0.0934
 3332SOL     OW13325   4.457   1.907   5.409 -0.4532 -0.7386 -0.0560
 3332SOL    HW113326   4.400   1.922   5.485 -0.0212 -0.3320  0.1963
 3332SOL    HW213327   4.413   1.839   5.358 -1.2704 -0.2763  0.0247
 3332SOL     MW13328   4.444   1.900   5.412 -0.5025 -0.6273 -0.0133
 3333SOL     OW13329   5.425   4.110   4.060  0.3490  0.0737 -0.3134
 3333SOL    HW113330   5.519   4.099   4.046  0.3826  1.7937 -1.7150
 3333SOL    HW213331   5.414   4.107   4.155  1.5841 -1.6490 -0.1762
 3333SOL     MW13332   5.435   4.108   4.070  0.5114  0.0734 -0.4753
 3334SOL     OW13333   4.775   2.873   3.960  0.3348 -0.1520 -0.0247
 3334SOL    HW113334   4.839   2.937   3.928 -0.0829  0.4663  0.3504
 3334SOL    HW213335   4.714   2.925   4.012  0.4968 -0.9902  1.0399
 3334SOL     MW13336   4.776   2.888   3.963  0.3021 -0.1802  0.1596
 3335SOL     OW13337   2.884   0.943   1.550 -0.1567 -0.1252 -0.1857
 3335SOL    HW113338   2.819   0.872   1.552 -0.6485  0.3402  0.6088
 3335SOL    HW213339   2.966   0.900   1.572  0.0739 -0.9655 -2.4416
 3335SOL     MW13340   2.886   0.928   1.553 -0.1902 -0.1732 -0.3728
 3336SOL     OW13341   0.211   2.809   0.989  0.2335  0.8156 -0.2269
 3336SOL    HW113342   0.193   2.897   1.021  1.4344  0.4159  1.7048
 3336SOL    HW213343   0.284   2.819   0.928  1.2728  1.0602  1.0002
 3336SOL     MW13344   0.218   2.821   0.985  0.5203  0.7957  0.1775
 3337SOL     OW13345   4.934   4.135   0.106  0.3313  0.2990  0.1315
 3337SOL    HW113346   4.907   4.044   0.094  1.5321 -0.0140 -0.3431
 3337SOL    HW213347   4.869   4.186   0.056  0.3833 -0.3907 -0.6711
 3337SOL     MW13348   4.922   4.130   0.098  0.4916  0.1707 -0.0320
 3338SOL     OW13349   4.977   2.784   1.064 -0.1996  0.5307  0.4399
 3338SOL    HW113350   4.935   2.698   1.064 -0.9689  0.8703 -1.4730
 3338SOL    HW213351   4.906   2.846   1.074  0.0149  1.0428 -1.0435
 3338SOL     MW13352   4.963   2.781   1.066 -0.2707  0.6397  0.0051
 3339SOL     OW13353   2.010   3.260   4.559 -0.2091 -0.3793 -0.2606
 3339SOL    HW113354   1.917   3.246   4.577 -0.2964  1.0855  0.5349
 3339SOL    HW213355   2.013   3.287   4.467 -0.5465 -0.5501 -0.3219
 3339SOL     MW13356   1.999   3.261   4.549 -0.2635 -0.2136 -0.1666
 3340SOL     OW13357   2.976   3.013   3.525  0.2878  0.3014 -0.1694
 3340SOL    HW113358   2.963   3.095   3.478 -0.2282  0.2378 -0.1469
 3340SOL    HW213359   3.036   2.963   3.470  0.4373  0.6055 -0.2883
 3340SOL     MW13360   2.982   3.017   3.512  0.2409  0.3322 -0.1817
 3341SOL     OW13361   3.305   4.221   2.636  0.3986 -0.1674 -0.2629
 3341SOL    HW113362   3.371   4.273   2.590 -0.7562  0.1345 -1.6562
 3341SOL    HW213363   3.270   4.280   2.702  0.8971 -0.0299 -0.1194
 3341SOL     MW13364   3.309   4.235   2.638  0.3146 -0.1111 -0.4229
 3342SOL     OW13365   0.909   2.416   0.310  0.2963 -0.0163 -0.5474
 3342SOL    HW113366   0.997   2.426   0.348 -0.0065  1.6497 -0.2006
 3342SOL    HW213367   0.923   2.416   0.216  0.6520  0.5797 -0.4981
 3342SOL     MW13368   0.922   2.417   0.303  0.3030  0.2733 -0.4967
 3343SOL     OW13369   2.909   1.186   2.239  0.3420 -0.1196 -0.2681
 3343SOL    HW113370   2.823   1.210   2.273  1.3468  1.2181  1.4733
 3343SOL    HW213371   2.926   1.250   2.170  0.5942  0.6363  0.4802
 3343SOL     MW13372   2.900   1.197   2.234  0.5029  0.1484  0.0506
 3344SOL     OW13373   3.762   2.593   5.027  0.0378 -0.5763 -0.2994
 3344SOL    HW113374   3.720   2.524   4.976 -0.6484  1.1777 -2.2644
 3344SOL    HW213375   3.729   2.674   4.989  0.4348  0.8718  2.2218
 3344SOL     MW13376   3.752   2.595   5.015  0.0008 -0.1664 -0.2282
 3345SOL     OW13377   3.843   5.240   3.942  0.2656  0.3623  0.1575
 3345SOL    HW113378   3.928   5.200   3.957  0.9873  1.3516 -1.0320
 3345SOL    HW213379   3.837   5.308   4.009 -0.9248 -1.5724  2.1214
 3345SOL     MW13380   3.853   5.244   3.953  0.2056  0.2413  0.2566
 3346SOL     OW13381   2.808   2.901   4.634  0.9946  0.3197 -0.1755
 3346SOL    HW113382   2.778   2.901   4.725  0.3352 -3.7125 -0.2054
 3346SOL    HW213383   2.729   2.883   4.583  1.9661 -1.4157 -1.1331
 3346SOL     MW13384   2.794   2.899   4.639  1.0346 -0.4186 -0.3019
 3347SOL     OW13385   3.926   5.442   1.136 -0.5038  0.1767  0.0381
 3347SOL    HW113386   3.893   5.430   1.225 -1.3312  2.2448  0.0537
 3347SOL    HW213387   4.022   5.438   1.145 -0.5734  0.5527  1.0453
 3347SOL     MW13388   3.934   5.440   1.149 -0.6187  0.4896  0.1691
 3348SOL     OW13389   3.493   0.169   4.428  0.5460  0.0337 -0.3446
 3348SOL    HW113390   3.483   0.077   4.453  1.1252  0.4192  1.4062
 3348SOL    HW213391   3.587   0.183   4.426  0.4669  0.5136 -0.9424
 3348SOL     MW13392   3.503   0.159   4.431  0.6100  0.1445 -0.1970
 3349SOL     OW13393   4.635   2.842   4.971  0.0545  0.3383  0.3507
 3349SOL    HW113394   4.561   2.893   4.939 -0.0273 -0.5877 -1.0454
 3349SOL    HW213395   4.602   2.799   5.051 -1.0109 -0.2500 -0.3774
 3349SOL     MW13396   4.621   2.843   4.977 -0.0924  0.1445  0.0788
 3350SOL     OW13397   2.966   4.645   5.161  0.1199  0.3280 -0.0173
 3350SOL    HW113398   3.046   4.681   5.200 -0.4641  2.5663 -0.7319
 3350SOL    HW213399   2.996   4.572   5.108  1.0430 -2.3282  3.7746
 3350SOL     MW13400   2.980   4.641   5.160  0.1633  0.2745  0.3766
 3351SOL     OW13401   3.718   2.650   2.936 -0.5829 -0.0902 -0.0646
 3351SOL    HW113402   3.666   2.656   3.017  2.6316 -0.2048  2.2020
 3351SOL    HW213403   3.687   2.722   2.882  0.6124  3.5584  3.5900
 3351SOL     MW13404   3.707   2.660   2.940 -0.0184  0.3622  0.6934
 3352SOL     OW13405   0.462   4.533   3.438  0.4940  0.5668  0.7868
 3352SOL    HW113406   0.377   4.556   3.401  0.4674  1.5408  1.4129
 3352SOL    HW213407   0.524   4.545   3.367 -0.0422 -1.6304 -0.1380
 3352SOL     MW13408   0.459   4.537   3.424  0.4219  0.4102  0.7486
 3353SOL     OW13409   3.847   4.334   4.170 -0.1683 -0.4614  0.0758
 3353SOL    HW113410   3.760   4.368   4.190  0.6415  0.9015  1.5224
 3353SOL    HW213411   3.831   4.262   4.109 -2.4212 -1.1549  1.3506
 3353SOL     MW13412   3.834   4.329   4.165 -0.3530 -0.3757  0.4242
 3354SOL     OW13413   1.478   2.773   4.782 -0.3749 -0.2951 -0.2386
 3354SOL    HW113414   1.485   2.681   4.810 -1.7909 -0.1635  0.6403
 3354SOL    HW213415   1.429   2.816   4.853 -0.4533  0.9632 -1.0283
 3354SOL     MW13416   1.473   2.766   4.795 -0.5662 -0.1172 -0.2272
 3355SOL     OW13417   0.488   4.049   3.583  0.1856  0.3381  0.2148
 3355SOL    HW113418   0.456   3.987   3.518  0.1895 -0.4203  0.9185
 3355SOL    HW213419   0.463   4.135   3.549 -0.0670 -0.0641 -0.6350
 3355SOL     MW13420   0.481   4.052   3.570  0.1538  0.1895  0.1961
 3356SOL     OW13421   0.889   3.842   2.435 -0.2067 -0.5574  0.1720
 3356SOL    HW113422   0.859   3.794   2.358  0.3841  0.3977 -0.6912
 3356SOL    HW213423   0.829   3.815   2.505 -0.9203 -1.2586 -0.6774
 3356SOL     MW13424   0.877   3.833   2.434 -0.2225 -0.5249 -0.0472
 3357SOL     OW13425   3.243   1.860   3.259  0.4412  0.4598  0.0443
 3357SOL    HW113426   3.313   1.842   3.195  0.9926  0.7827  0.5467
 3357SOL    HW213427   3.263   1.948   3.292 -0.8630  1.0418 -0.6347
 3357SOL     MW13428   3.255   1.869   3.255  0.3449  0.5757  0.0217
 3358SOL     OW13429   5.227   3.449   1.496  0.4583 -0.2428 -0.3920
 3358SOL    HW113430   5.210   3.542   1.480 -0.5932 -0.4579 -0.5586
 3358SOL    HW213431   5.204   3.435   1.588  2.3170  0.0286  0.1584
 3358SOL     MW13432   5.222   3.459   1.506  0.5617 -0.2356 -0.3429
 3359SOL     OW13433   0.140   2.941   2.521 -0.2932 -0.0688 -0.3189
 3359SOL    HW113434   0.127   2.846   2.512 -0.3633  0.0248 -1.2982
 3359SOL    HW213435   0.208   2.962   2.457 -0.3176  0.5541 -0.1436
 3359SOL     MW13436   0.147   2.931   2.512 -0.3053  0.0230 -0.4218
 3360SOL     OW13437   2.662   5.427   1.898 -0.3328 -0.6626 -0.2933
 3360SOL    HW113438   2.748   5.408   1.935 -0.9144 -2.1313  0.3760
 3360SOL    HW213439   2.662   5.522   1.884  1.9013 -0.8214 -1.6838
 3360SOL     MW13440   2.673   5.437   1.901 -0.1213 -0.8709 -0.3856
 3361SOL     OW13441   4.107   4.924   1.313 -0.6211  0.5806 -0.0408
 3361SOL    HW113442   4.188   4.874   1.317  0.2576  1.9635  0.1408
 3361SOL    HW213443   4.039   4.858   1.299  0.2523 -0.8694  2.0105
 3361SOL     MW13444   4.108   4.909   1.312 -0.3968  0.5720  0.2451
 3362SOL     OW13445   0.715   4.792   5.152 -0.0216 -0.1481  0.2328
 3362SOL    HW113446   0.732   4.875   5.109 -0.6431 -0.5081 -0.7375
 3362SOL    HW213447   0.775   4.730   5.110 -0.0388 -0.3325  0.4735
 3362SOL     MW13448   0.725   4.795   5.141 -0.1034 -0.2178  0.1394
 3363SOL     OW13449   2.672   4.021   4.870 -0.4588  0.0113 -0.3918
 3363SOL    HW113450   2.580   4.022   4.897 -0.3629 -0.3524 -0.0406
 3363SOL    HW213451   2.690   4.111   4.843 -0.5020  0.4496  0.9747
 3363SOL     MW13452   2.662   4.033   4.870 -0.4520  0.0208 -0.1719
 3364SOL     OW13453   1.398   2.530   0.422 -0.5595 -0.5039 -0.2071
 3364SOL    HW113454   1.309   2.497   0.415  0.2530 -3.0224  0.3627
 3364SOL    HW213455   1.433   2.490   0.501  1.6792 -1.2187 -1.4473
 3364SOL     MW13456   1.391   2.521   0.431 -0.1689 -0.9178 -0.2929
 3365SOL     OW13457   5.398   0.176   1.838  0.5779 -0.2611 -0.5636
 3365SOL    HW113458   5.334   0.118   1.796  0.2385  0.4602 -1.0636
 3365SOL    HW213459   5.482   0.147   1.802  0.3888 -0.3013 -0.9914
 3365SOL     MW13460   5.400   0.165   1.828  0.5103 -0.1740 -0.6824
 3366SOL     OW13461   4.900   1.756   5.398  0.0135  0.3056  0.1156
 3366SOL    HW113462   4.894   1.780   5.305 -3.2595 -0.5360 -0.0208
 3366SOL    HW213463   4.930   1.665   5.396 -0.4883  0.1413 -0.1606
 3366SOL     MW13464   4.903   1.747   5.386 -0.4697  0.1768  0.0628
 3367SOL     OW13465   2.588   1.891   5.124 -0.1511  0.7876  0.3274
 3367SOL    HW113466   2.621   1.862   5.209 -1.2759  0.4299  0.6701
 3367SOL    HW213467   2.562   1.810   5.079 -1.4784  1.0913  0.4936
 3367SOL     MW13468   2.589   1.877   5.129 -0.4650  0.7807  0.3926
 3368SOL     OW13469   0.556   0.606   1.737  0.2041  0.3636  0.4707
 3368SOL    HW113470   0.499   0.598   1.814 -1.2557  0.8671 -0.5059
 3368SOL    HW213471   0.559   0.518   1.699 -0.4540  0.4617  0.1805
 3368SOL     MW13472   0.549   0.594   1.742 -0.0670  0.4406  0.3085
 3369SOL     OW13473   1.588   0.369   1.643  0.5037 -0.0910  0.2390
 3369SOL    HW113474   1.513   0.363   1.701  1.0416 -1.3648  0.8426
 3369SOL    HW213475   1.589   0.460   1.614 -0.7604  0.1498  0.8891
 3369SOL     MW13476   1.579   0.380   1.646  0.4108 -0.2233  0.3995
 3370SOL     OW13477   0.807   3.135   2.319 -0.8424 -0.3122 -0.0723
 3370SOL    HW113478   0.741   3.070   2.293  0.1327 -2.2704  2.0096
 3370SOL    HW213479   0.879   3.122   2.257 -1.0758 -0.5187 -0.3056
 3370SOL     MW13480   0.808   3.125   2.308 -0.7474 -0.5893  0.1643
 3371SOL     OW13481   3.111   4.945   0.587 -0.5619 -0.1668 -0.1946
 3371SOL    HW113482   3.058   5.014   0.547 -0.1810  0.5912  0.5972
 3371SOL    HW213483   3.180   4.927   0.523  0.1077  1.1159  0.1476
 3371SOL     MW13484   3.113   4.951   0.573 -0.4274  0.0944 -0.0495
 3372SOL     OW13485   3.674   3.787   3.819  0.3177  0.6892  0.2182
 3372SOL    HW113486   3.769   3.780   3.827  0.5257  2.2586 -0.4588
 3372SOL    HW213487   3.656   3.783   3.725 -0.1116  1.8804  0.2242
 3372SOL     MW13488   3.684   3.786   3.808  0.2894  1.0426  0.1323
 3373SOL     OW13489   3.366   4.610   5.065  0.3040 -0.2606 -0.9161
 3373SOL    HW113490   3.460   4.602   5.080  0.3374  0.2902 -0.8230
 3373SOL    HW213491   3.330   4.525   5.090  0.3874  0.4311  1.9458
 3373SOL     MW13492   3.373   4.598   5.070  0.3189 -0.1015 -0.5378
 3374SOL     OW13493   3.226   4.928   0.849 -0.1324 -0.2433 -0.4825
 3374SOL    HW113494   3.237   4.834   0.855 -0.5748 -0.2752 -0.1619
 3374SOL    HW213495   3.190   4.942   0.761 -1.7336 -0.5395  0.0986
 3374SOL     MW13496   3.223   4.918   0.838 -0.3940 -0.2853 -0.3671
 3375SOL     OW13497   0.966   4.479   2.909 -0.2629 -0.5465 -0.8391
 3375SOL    HW113498   1.013   4.417   2.853 -0.8445 -0.5403 -1.3464
 3375SOL    HW213499   0.902   4.426   2.956  0.0727 -0.5162 -0.3453
 3375SOL     MW13500   0.964   4.464   2.908 -0.2944 -0.5419 -0.8408
 3376SOL     OW13501   2.443   4.391   4.658  0.2155 -0.1154 -0.1139
 3376SOL    HW113502   2.389   4.392   4.578 -0.4412 -0.0348  0.3248
 3376SOL    HW213503   2.385   4.355   4.725  0.6928  0.0417  0.3829
 3376SOL     MW13504   2.429   4.387   4.656  0.1925 -0.0850  0.0058
 3377SOL     OW13505   1.598   0.392   1.284  0.3182  0.2045 -0.4530
 3377SOL    HW113506   1.562   0.449   1.351  0.3488  0.8483 -0.9674
 3377SOL    HW213507   1.548   0.413   1.205  2.0251  1.3983 -1.2815
 3377SOL     MW13508   1.587   0.402   1.282  0.5406  0.4397 -0.6249
 3378SOL     OW13509   2.754   1.743   4.779  0.0812  0.2198  0.0956
 3378SOL    HW113510   2.767   1.829   4.819 -3.1194  0.9639 -0.1843
 3378SOL    HW213511   2.693   1.698   4.837 -1.1950 -0.3977 -1.6229
 3378SOL     MW13512   2.748   1.748   4.791 -0.4919  0.2360 -0.1602
 3379SOL     OW13513   0.837   1.888   2.583  0.3163  0.1171  0.6985
 3379SOL    HW113514   0.861   1.851   2.498 -1.0956  1.1811 -0.2170
 3379SOL    HW213515   0.781   1.821   2.623  0.8099 -0.2996  0.6995
 3379SOL     MW13516   0.833   1.875   2.577  0.1988  0.2000  0.5814
 3380SOL     OW13517   4.039   0.663   0.638 -0.3911  0.2130 -0.3280
 3380SOL    HW113518   3.953   0.646   0.600 -0.3392  1.8120 -1.2612
 3380SOL    HW213519   4.030   0.747   0.682  0.7511  0.5455 -0.6866
 3380SOL     MW13520   4.027   0.671   0.639 -0.2382  0.4602 -0.4934
 3381SOL     OW13521   4.553   4.192   2.764  0.0868  0.0346  0.1544
 3381SOL    HW113522   4.518   4.282   2.765 -1.2766 -0.4192 -1.1892
 3381SOL    HW213523   4.583   4.176   2.853 -1.1141  1.2835  0.8167
 3381SOL     MW13524   4.552   4.202   2.775 -0.2414  0.1364  0.0672
 3382SOL     OW13525   2.523   5.214   1.764 -0.0159 -0.1862  0.2086
 3382SOL    HW113526   2.563   5.298   1.785  0.0641 -0.2588  0.3558
 3382SOL    HW213527   2.517   5.213   1.669 -0.2862  0.1062  0.2216
 3382SOL     MW13528   2.528   5.224   1.754 -0.0403 -0.1580  0.2291
 3383SOL     OW13529   0.051   1.680   0.191  0.1203  0.5058  0.2029
 3383SOL    HW113530   0.076   1.772   0.187  1.4066  0.1318 -1.5917
 3383SOL    HW213531   0.068   1.654   0.282  0.9424  1.7292  0.4187
 3383SOL     MW13532   0.056   1.688   0.202  0.3902  0.6145  0.0008
 3384SOL     OW13533   0.147   4.304   4.951  0.3268  0.3295  0.3236
 3384SOL    HW113534   0.138   4.271   4.862 -0.9585  2.1599 -0.2666
 3384SOL    HW213535   0.139   4.225   5.006  3.1115 -1.1441 -1.1446
 3384SOL     MW13536   0.145   4.289   4.947  0.5188  0.3752  0.0601
 3385SOL     OW13537   5.075   4.150   0.998 -0.1533  0.0142  0.0612
 3385SOL    HW113538   5.069   4.121   1.090  0.2743 -0.8596 -0.1700
 3385SOL    HW213539   5.109   4.239   1.003  0.4287 -0.2365  0.7339
 3385SOL     MW13540   5.079   4.158   1.011 -0.0241 -0.1298  0.1177
 3386SOL     OW13541   0.400   5.016   2.093 -0.5305 -0.2413  0.6694
 3386SOL    HW113542   0.439   4.989   2.175 -0.3181  1.9022  1.3375
 3386SOL    HW213543   0.418   5.110   2.087 -1.3179 -0.1593 -1.3904
 3386SOL     MW13544   0.407   5.025   2.103 -0.6041  0.0436  0.4912
 3387SOL     OW13545   3.275   4.968   4.970 -0.2985  0.6322 -0.1083
 3387SOL    HW113546   3.272   4.930   5.058 -1.5398  3.4959  1.1759
 3387SOL    HW213547   3.356   5.020   4.969  0.2731 -0.2264 -1.0939
 3387SOL     MW13548   3.285   4.969   4.981 -0.3842  0.8889 -0.0701
 3388SOL     OW13549   2.615   4.492   5.331 -0.1250 -0.1378 -0.2372
 3388SOL    HW113550   2.524   4.475   5.307 -0.6146 -0.1108  1.4370
 3388SOL    HW213551   2.622   4.460   5.421  2.4736 -3.2992 -1.3732
 3388SOL     MW13552   2.604   4.486   5.340  0.1449 -0.5391 -0.1683
 3389SOL     OW13553   0.234   4.567   0.779 -0.8581  0.0200  0.2144
 3389SOL    HW113554   0.249   4.508   0.704 -2.3552 -0.3242  0.1598
 3389SOL    HW213555   0.163   4.624   0.751 -0.4897  0.8192  0.8708
 3389SOL     MW13556   0.227   4.567   0.766 -1.0026  0.0783  0.2915
 3390SOL     OW13557   4.323   5.229   5.380  0.1971 -0.1843  0.1891
 3390SOL    HW113558   4.394   5.215   5.443  0.2839  1.2547  0.4497
 3390SOL    HW213559   4.357   5.195   5.297  1.6081  1.3942  0.0816
 3390SOL     MW13560   4.336   5.223   5.377  0.3888  0.2020  0.2087
 3391SOL     OW13561   3.802   3.310   4.062 -0.7059 -0.2798  0.0842
 3391SOL    HW113562   3.800   3.380   4.126 -0.3385  0.3744 -0.5988
 3391SOL    HW213563   3.715   3.312   4.021 -0.1424  0.9405 -1.1278
 3391SOL     MW13564   3.791   3.319   4.065 -0.5867 -0.0399 -0.1584
 3392SOL     OW13565   2.274   4.821   2.087 -0.4273  0.5691  0.1377
 3392SOL    HW113566   2.293   4.786   2.173  0.8344  1.9344  0.4586
 3392SOL    HW213567   2.179   4.832   2.085 -0.5870 -0.5889  0.8891
 3392SOL     MW13568   2.264   4.818   2.097 -0.2863  0.5957  0.2750
 3393SOL     OW13569   1.433   5.241   0.345  0.2621 -0.1727 -0.1752
 3393SOL    HW113570   1.430   5.332   0.377 -0.6516 -0.8772  1.9308
 3393SOL    HW213571   1.390   5.190   0.414  1.2866 -2.3057 -1.0280
 3393SOL     MW13572   1.427   5.246   0.358  0.2763 -0.5359 -0.0148
 3394SOL     OW13573   2.582   3.182   4.674 -0.1518 -0.2692  0.5021
 3394SOL    HW113574   2.538   3.244   4.617  1.1949  0.7448  0.5155
 3394SOL    HW213575   2.671   3.174   4.637 -0.2487 -2.1418  0.5345
 3394SOL     MW13576   2.588   3.189   4.662  0.0081 -0.3791  0.5079
 3395SOL     OW13577   4.382   1.403   0.600  0.8749  0.0449 -0.6723
 3395SOL    HW113578   4.329   1.327   0.574 -1.7536  1.5109  0.0992
 3395SOL    HW213579   4.462   1.394   0.548  0.2234 -2.6547 -1.4038
 3395SOL     MW13580   4.385   1.392   0.590  0.4550 -0.1130 -0.6672
 3396SOL     OW13581   2.767   2.229   4.684 -0.1755 -0.2150  0.8485
 3396SOL    HW113582   2.842   2.170   4.689 -0.2879 -0.4655 -0.2118
 3396SOL    HW213583   2.697   2.183   4.731  0.5690  0.4421  2.6901
 3396SOL     MW13584   2.768   2.216   4.691 -0.0946 -0.1629  0.9485
 3397SOL     OW13585   1.914   4.983   1.398 -0.2416  0.6393 -0.2413
 3397SOL    HW113586   1.819   4.990   1.399 -0.3499 -0.5603  0.0365
 3397SOL    HW213587   1.933   4.911   1.458  0.8887  1.2977  0.2186
 3397SOL     MW13588   1.905   4.974   1.406 -0.1108  0.5700 -0.1469
 3398SOL     OW13589   3.462   1.862   2.400 -0.0279 -0.4017  0.0482
 3398SOL    HW113590   3.418   1.933   2.352 -0.6631 -1.2129 -0.5983
 3398SOL    HW213591   3.436   1.875   2.491 -1.5358 -0.7839 -0.2991
 3398SOL     MW13592   3.453   1.873   2.405 -0.3022 -0.5545 -0.0790
 3399SOL     OW13593   0.372   2.019   1.324  0.6741 -0.6062 -0.1900
 3399SOL    HW113594   0.381   2.095   1.267  0.9761 -2.1796 -2.3648
 3399SOL    HW213595   0.278   2.011   1.340  0.8015  2.1693  3.0292
 3399SOL     MW13596   0.361   2.028   1.319  0.7290 -0.4524 -0.0563
 3400SOL     OW13597   1.912   3.612   3.016 -0.2604  0.4680  0.5305
 3400SOL    HW113598   1.935   3.681   2.953  1.8051  0.4321  1.1597
 3400SOL    HW213599   1.939   3.531   2.973  1.5901  0.4784  1.5652
 3400SOL     MW13600   1.918   3.611   3.003  0.2409  0.4647  0.7435
 3401SOL     OW13601   3.966   2.282   1.080 -0.4251 -0.4807 -0.5005
 3401SOL    HW113602   3.948   2.374   1.059  0.4493  0.2031  1.4893
 3401SOL    HW213603   4.041   2.259   1.026  1.5789  1.1123  1.4376
 3401SOL     MW13604   3.973   2.291   1.070 -0.0566 -0.1892  0.0023
 3402SOL     OW13605   1.053   1.400   1.658  0.0813 -0.7907 -0.4071
 3402SOL    HW113606   1.044   1.327   1.719 -1.3214 -1.3297 -1.2135
 3402SOL    HW213607   0.968   1.444   1.660  0.4282 -0.0664 -1.0366
 3402SOL     MW13608   1.041   1.396   1.666 -0.0538 -0.7670 -0.5909
 3403SOL     OW13609   3.878   3.533   1.717  0.4504  0.0270 -0.1644
 3403SOL    HW113610   3.958   3.534   1.663  0.1607 -1.5094 -0.6458
 3403SOL    HW213611   3.810   3.565   1.658  0.3221 -0.7012 -0.4216
 3403SOL     MW13612   3.880   3.538   1.702  0.3969 -0.2629 -0.2589
 3404SOL     OW13613   0.750   5.223   2.613  0.4245 -0.0158  0.0397
 3404SOL    HW113614   0.815   5.214   2.682 -0.5336 -2.8345  0.6823
 3404SOL    HW213615   0.781   5.167   2.542  0.2177  1.0518 -0.9370
 3404SOL     MW13616   0.762   5.215   2.613  0.2754 -0.2399 -0.0030
 3405SOL     OW13617   1.847   1.923   1.760 -0.7267 -0.7775 -0.4549
 3405SOL    HW113618   1.801   1.999   1.724  2.1213  0.3870 -2.0015
 3405SOL    HW213619   1.849   1.938   1.854 -2.4212 -0.3052 -0.4657
 3405SOL     MW13620   1.842   1.935   1.767 -0.5790 -0.5680 -0.6543
 3406SOL     OW13621   4.396   0.731   3.988 -0.1758  0.0393  0.1565
 3406SOL    HW113622   4.411   0.730   3.893  0.9380  0.9123  0.2989
 3406SOL    HW213623   4.425   0.818   4.015  0.8645 -0.7026  1.5006
 3406SOL     MW13624   4.402   0.742   3.979  0.0999  0.0561  0.3468
 3407SOL     OW13625   5.402   3.645   0.450  0.0951  0.6437 -1.0790
 3407SOL    HW113626   5.496   3.638   0.437  0.3435  0.7612  0.4871
 3407SOL    HW213627   5.387   3.739   0.462  0.7518  0.3401  4.6427
 3407SOL     MW13628   5.412   3.656   0.450  0.2109  0.6198 -0.1461
 3408SOL     OW13629   4.353   4.598   4.854 -0.2763  0.0003  0.3730
 3408SOL    HW113630   4.388   4.572   4.768 -0.9229  0.8176 -0.1518
 3408SOL    HW213631   4.263   4.565   4.854  0.5660 -2.5995  1.9427
 3408SOL     MW13632   4.346   4.590   4.843 -0.2512 -0.2279  0.5068
 3409SOL     OW13633   4.638   1.539   5.396 -0.1576 -0.1241  0.2233
 3409SOL    HW113634   4.679   1.464   5.439 -1.7265  0.2957  2.5993
 3409SOL    HW213635   4.638   1.608   5.462 -0.0002  1.5739 -1.4572
 3409SOL     MW13636   4.643   1.538   5.410 -0.3383  0.1470  0.3124
 3410SOL     OW13637   2.256   0.661   3.810 -0.3515  0.4666  0.6497
 3410SOL    HW113638   2.291   0.694   3.893 -0.5230  0.3379  0.7742
 3410SOL    HW213639   2.299   0.714   3.743  1.7318 -1.0795  0.6620
 3410SOL     MW13640   2.266   0.672   3.812 -0.1068  0.2522  0.6672
 3411SOL     OW13641   2.591   4.227   1.392 -0.0404 -0.7154  0.0775
 3411SOL    HW113642   2.541   4.309   1.392 -0.2467 -0.8348 -0.6440
 3411SOL    HW213643   2.558   4.179   1.468 -1.1651 -0.8602 -0.4746
 3411SOL     MW13644   2.580   4.231   1.402 -0.2108 -0.7492 -0.0855
 3412SOL     OW13645   1.803   4.309   5.317  0.0761 -0.0649  0.6125
 3412SOL    HW113646   1.763   4.260   5.389 -0.9615  0.2233  0.2500
 3412SOL    HW213647   1.729   4.342   5.266  0.7258  2.0477  0.9472
 3412SOL     MW13648   1.789   4.307   5.319  0.0265  0.2424  0.6090
 3413SOL     OW13649   2.858   1.010   2.841 -0.8798 -0.0669 -0.1060
 3413SOL    HW113650   2.792   1.063   2.797 -0.0770 -0.2240 -1.5572
 3413SOL    HW213651   2.936   1.018   2.787  0.2260 -0.1360  1.3945
 3413SOL     MW13652   2.860   1.018   2.829 -0.6355 -0.0959 -0.0997
 3414SOL     OW13653   1.287   4.692   0.218 -0.6329  0.3694 -0.0228
 3414SOL    HW113654   1.340   4.766   0.186 -0.4727 -0.1031 -0.9057
 3414SOL    HW213655   1.326   4.669   0.302  0.5243  0.1029 -0.6087
 3414SOL     MW13656   1.299   4.698   0.224 -0.4643  0.2748 -0.2108
 3415SOL     OW13657   1.879   3.835   1.684  0.2421  0.0100  0.1581
 3415SOL    HW113658   1.941   3.908   1.673  0.1557  0.0221 -0.2324
 3415SOL    HW213659   1.874   3.823   1.779  0.9139 -0.0485  0.1927
 3415SOL     MW13660   1.887   3.843   1.695  0.3170  0.0040  0.1126
 3416SOL     OW13661   2.388   5.309   2.267 -0.4210 -0.0989 -0.0411
 3416SOL    HW113662   2.451   5.271   2.206  1.4957  2.3412  0.2642
 3416SOL    HW213663   2.426   5.295   2.353 -1.5819 -0.8215  0.3717
 3416SOL     MW13664   2.401   5.303   2.270 -0.3243  0.1209  0.0508
 3417SOL     OW13665   0.925   4.809   2.058  0.1814  0.5054 -0.4957
 3417SOL    HW113666   0.987   4.877   2.083  0.3491  0.2385 -0.1820
 3417SOL    HW213667   0.971   4.759   1.991 -0.0803  0.9192 -0.9923
 3417SOL     MW13668   0.939   4.811   2.053  0.1694  0.5242 -0.5191
 3418SOL     OW13669   4.632   2.247   4.348 -0.1160 -0.1273 -0.0020
 3418SOL    HW113670   4.562   2.305   4.377  2.0995  1.9113  1.6970
 3418SOL    HW213671   4.653   2.194   4.425  0.5657 -0.3327 -0.3229
 3418SOL     MW13672   4.626   2.248   4.361  0.2548  0.1074  0.1744
 3419SOL     OW13673   0.352   5.135   3.205 -0.1781  0.5391  0.0851
 3419SOL    HW113674   0.361   5.132   3.110  1.0804 -1.5827  0.2008
 3419SOL    HW213675   0.440   5.114   3.238 -0.6420  0.9964  1.7293
 3419SOL     MW13676   0.365   5.132   3.197 -0.0764  0.3260  0.3104
 3420SOL     OW13677   4.390   0.934   3.274  0.0431 -0.0136  0.5291
 3420SOL    HW113678   4.350   0.894   3.197 -0.7833  0.1776  0.8456
 3420SOL    HW213679   4.477   0.895   3.279  0.0173 -0.2135 -0.3542
 3420SOL     MW13680   4.396   0.924   3.264 -0.0660 -0.0148  0.4566
 3421SOL     OW13681   1.853   2.438   4.122 -0.5459  0.2077 -0.3887
 3421SOL    HW113682   1.857   2.391   4.206 -0.3301 -0.1299 -0.5821
 3421SOL    HW213683   1.794   2.385   4.068  0.8169 -0.6586 -1.0938
 3421SOL     MW13684   1.846   2.425   4.126 -0.3438  0.0536 -0.5037
 3422SOL     OW13685   0.835   5.057   2.389 -0.2010 -0.2242 -0.3262
 3422SOL    HW113686   0.788   5.078   2.309 -0.2119 -1.3868 -0.6477
 3422SOL    HW213687   0.925   5.085   2.373 -0.8178  2.4794  0.4817
 3422SOL     MW13688   0.841   5.063   2.377 -0.2814 -0.0269 -0.2639
 3423SOL     OW13689   0.448   5.092   4.143  0.6652 -0.1707  0.1180
 3423SOL    HW113690   0.491   5.139   4.071 -1.2696 -0.5060 -1.3457
 3423SOL    HW213691   0.452   5.000   4.116 -0.8355 -0.2162 -0.0236
 3423SOL     MW13692   0.454   5.086   4.130  0.2254 -0.2194 -0.0875
 3424SOL     OW13693   5.065   1.846   4.480  0.3343  0.1005  0.4387
 3424SOL    HW113694   5.139   1.907   4.485 -0.2601  1.0081 -1.2279
 3424SOL    HW213695   5.103   1.761   4.502  1.0010  1.1022  3.8713
 3424SOL     MW13696   5.079   1.843   4.484  0.3436  0.3449  0.6648
 3425SOL     OW13697   5.250   3.603   0.212 -0.7441 -0.3587  0.0926
 3425SOL    HW113698   5.313   3.618   0.282 -1.9750 -0.1129  1.1880
 3425SOL    HW213699   5.192   3.534   0.245 -1.6813  0.1473 -0.4374
 3425SOL     MW13700   5.250   3.596   0.225 -1.0216 -0.2625  0.1650
 3426SOL     OW13701   0.294   4.812   2.515 -0.5314 -0.0886  0.1705
 3426SOL    HW113702   0.253   4.736   2.472  1.4082 -0.3979 -1.3191
 3426SOL    HW213703   0.366   4.774   2.566 -0.1082  0.6607  0.1435
 3426SOL     MW13704   0.298   4.797   2.516 -0.2289 -0.0322 -0.0236
 3427SOL     OW13705   1.273   2.330   3.607 -0.3960  0.5952 -0.2565
 3427SOL    HW113706   1.282   2.246   3.561  0.5599  0.4904  0.0842
 3427SOL    HW213707   1.195   2.319   3.660 -0.4371  0.0105 -0.4213
 3427SOL     MW13708   1.264   2.318   3.608 -0.2789  0.5070 -0.2340
 3428SOL     OW13709   0.084   0.555   1.453 -0.0890  0.1334 -0.5324
 3428SOL    HW113710  -0.011   0.559   1.470 -0.1457 -1.7792 -0.1657
 3428SOL    HW213711   0.093   0.588   1.364 -1.0332  0.8242 -0.3902
 3428SOL     MW13712   0.073   0.560   1.444 -0.2171 -0.0230 -0.4673
 3429SOL     OW13713   2.637   4.458   3.301 -0.3962 -0.3151  0.3922
 3429SOL    HW113714   2.638   4.368   3.268 -1.3117  0.1535 -0.9870
 3429SOL    HW213715   2.687   4.508   3.237 -1.4995  0.4833  0.1257
 3429SOL     MW13716   2.643   4.453   3.289 -0.6547 -0.1529  0.1815
 3430SOL     OW13717   3.302   4.845   4.306 -0.1504 -0.2299 -0.0397
 3430SOL    HW113718   3.311   4.750   4.311 -0.0579 -0.1919  0.7902
 3430SOL    HW213719   3.210   4.859   4.284 -0.0283 -0.5155 -0.7475
 3430SOL     MW13720   3.291   4.835   4.304 -0.1229 -0.2616 -0.0241
 3431SOL     OW13721   3.638   3.762   2.067  0.2672  0.6520  0.0360
 3431SOL    HW113722   3.606   3.820   1.998  1.1007  1.2513  0.1414
 3431SOL    HW213723   3.669   3.684   2.021 -0.5855  0.4035 -0.1311
 3431SOL     MW13724   3.638   3.759   2.052  0.2648  0.6969  0.0281
 3432SOL     OW13725   2.195   3.971   4.263 -0.4028 -0.1305 -0.4211
 3432SOL    HW113726   2.180   3.909   4.334  1.5745  0.0244  0.1851
 3432SOL    HW213727   2.282   4.006   4.280 -1.0462  2.0656 -1.3310
 3432SOL     MW13728   2.204   3.968   4.274 -0.2320  0.1705 -0.4599
 3433SOL     OW13729   2.314   1.674   5.381 -0.1449 -0.0942 -0.2163
 3433SOL    HW113730   2.329   1.668   5.475 -0.9241 -1.1920 -0.1476
 3433SOL    HW213731   2.258   1.600   5.360 -1.5498  1.2008 -1.2495
 3433SOL     MW13732   2.309   1.664   5.390 -0.4245 -0.0690 -0.3398
 3434SOL     OW13733   1.338   4.603   1.137  0.2895 -0.2809  0.0401
 3434SOL    HW113734   1.322   4.691   1.104  0.3352 -0.2885 -0.0041
 3434SOL    HW213735   1.280   4.547   1.085 -0.4425 -0.1665  0.7323
 3434SOL     MW13736   1.329   4.607   1.126  0.2017 -0.2672  0.1230
 3435SOL     OW13737   4.455   4.001   0.584  0.2391 -0.2010  0.3208
 3435SOL    HW113738   4.405   4.017   0.663  0.0397 -0.9603  0.3567
 3435SOL    HW213739   4.500   4.084   0.566 -0.9618  0.4687  0.3254
 3435SOL     MW13740   4.455   4.014   0.592  0.0598 -0.2125  0.3260
 3436SOL     OW13741   4.218   2.016   2.529  0.2992 -0.2340  0.2093
 3436SOL    HW113742   4.194   1.925   2.514 -0.9814 -0.3376  2.4931
 3436SOL    HW213743   4.274   2.013   2.607 -3.0417  1.1941  2.8826
 3436SOL     MW13744   4.222   2.004   2.537 -0.2924 -0.0644  0.8439
 3437SOL     OW13745   5.424   3.998   0.699  0.0046 -0.1937 -0.6549
 3437SOL    HW113746   5.333   4.016   0.723 -0.4674 -0.5039 -2.1177
 3437SOL    HW213747   5.450   3.925   0.755 -0.2362  0.6634  0.6170
 3437SOL     MW13748   5.416   3.991   0.710 -0.0867 -0.1237 -0.6794
 3438SOL     OW13749   0.595   4.822   3.064  0.0811  0.2265 -0.1733
 3438SOL    HW113750   0.559   4.821   2.975 -0.5668 -0.5934  0.0845
 3438SOL    HW213751   0.521   4.851   3.118  0.3988  0.4771  0.1267
 3438SOL     MW13752   0.581   4.826   3.060  0.0388  0.1536 -0.1019
 3439SOL     OW13753   0.674   3.462   2.216  1.1354 -0.3547  0.2228
 3439SOL    HW113754   0.719   3.391   2.170  0.3570 -2.1261  2.0276
 3439SOL    HW213755   0.689   3.443   2.309  2.4037  2.8834  0.8342
 3439SOL     MW13756   0.682   3.451   2.222  1.1981 -0.1670  0.5321
 3440SOL     OW13757   2.677   0.630   0.753 -0.0678  0.2603  0.0460
 3440SOL    HW113758   2.670   0.722   0.730  0.0676  0.1849 -0.2938
 3440SOL    HW213759   2.703   0.630   0.845  0.0964  0.5586 -0.0013
 3440SOL     MW13760   2.679   0.642   0.762 -0.0294  0.2888 -0.0036
 3441SOL     OW13761   0.814   0.138   4.642 -0.3623  0.6488  0.2549
 3441SOL    HW113762   0.871   0.063   4.623 -2.7081 -1.0549 -0.5585
 3441SOL    HW213763   0.872   0.213   4.640  1.5754 -0.7251 -2.5550
 3441SOL     MW13764   0.829   0.138   4.639 -0.4146  0.2549 -0.2090
 3442SOL     OW13765   5.117   1.917   5.340  0.3306 -0.1052  0.2421
 3442SOL    HW113766   5.127   1.824   5.359 -0.2179 -0.1634  0.2537
 3442SOL    HW213767   5.087   1.956   5.423 -0.1268 -0.0370  0.0485
 3442SOL     MW13768   5.114   1.910   5.353  0.2018 -0.1039  0.2188
 3443SOL     OW13769   0.172   2.506   4.320 -0.0691  0.1892 -0.1368
 3443SOL    HW113770   0.127   2.429   4.284  0.3969 -0.8495  1.4301
 3443SOL    HW213771   0.204   2.478   4.406 -1.2676  2.6024  1.2140
 3443SOL     MW13772   0.170   2.492   4.326 -0.1628  0.3651  0.2367
 3444SOL     OW13773   3.449   4.358   4.351 -0.7122  0.1992  0.3263
 3444SOL    HW113774   3.376   4.421   4.349  0.5402  1.6907 -1.2423
 3444SOL    HW213775   3.519   4.401   4.302  0.1490 -2.5488 -1.0496
 3444SOL     MW13776   3.448   4.372   4.345 -0.4416  0.0384 -0.0506
 3445SOL     OW13777   2.656   2.666   4.072 -0.1118  0.2612 -0.0322
 3445SOL    HW113778   2.652   2.722   3.995 -1.0546  1.2477  0.7045
 3445SOL    HW213779   2.690   2.723   4.141  0.8990 -0.6560  0.2567
 3445SOL     MW13780   2.660   2.681   4.071 -0.1031  0.2701  0.0991
 3446SOL     OW13781   5.180   0.026   4.591  0.1523 -0.0246  0.5306
 3446SOL    HW113782   5.166   0.121   4.589  0.0550 -0.0199  1.3548
 3446SOL    HW213783   5.233   0.011   4.669 -2.1490 -0.9354  2.0267
 3446SOL     MW13784   5.185   0.036   4.600 -0.1547 -0.1406  0.8276
 3447SOL     OW13785   3.549   0.986   0.392 -0.0322  0.4123 -0.1655
 3447SOL    HW113786   3.584   1.007   0.478 -0.6241 -0.9948  0.4531
 3447SOL    HW213787   3.612   0.924   0.354 -0.7110 -0.4427  0.0623
 3447SOL     MW13788   3.561   0.981   0.398 -0.1949  0.1227 -0.0571
 3448SOL     OW13789   3.344   2.032   2.241  0.5668  0.2782 -0.1518
 3448SOL    HW113790   3.255   2.005   2.260  0.0057  0.5607 -2.0849
 3448SOL    HW213791   3.349   2.123   2.270 -0.0815  0.5387 -0.8137
 3448SOL     MW13792   3.333   2.040   2.247  0.4120  0.3477 -0.4840
 3449SOL     OW13793   4.702   4.633   0.793 -0.2263  0.6253 -0.3627
 3449SOL    HW113794   4.719   4.540   0.808 -2.3116  0.3347  0.5168
 3449SOL    HW213795   4.789   4.673   0.795  0.5772 -1.0421  1.1023
 3449SOL     MW13796   4.716   4.626   0.795 -0.3904  0.3746 -0.0626
 3450SOL     OW13797   3.769   4.542   2.769  0.0070 -0.9024 -0.3779
 3450SOL    HW113798   3.771   4.536   2.674  1.3968  0.7680 -0.4941
 3450SOL    HW213799   3.678   4.526   2.792 -0.8585  0.9679 -2.1867
 3450SOL     MW13800   3.758   4.539   2.760  0.0741 -0.4491 -0.6243
 3451SOL     OW13801   3.656   0.059   5.363 -0.0130 -0.1838  0.0881
 3451SOL    HW113802   3.647  -0.017   5.305 -1.4927  0.6220 -0.8102
 3451SOL    HW213803   3.743   0.094   5.344  0.6535 -1.5686  0.4472
 3451SOL     MW13804   3.666   0.053   5.353 -0.1171 -0.2579  0.0191
 3452SOL     OW13805   0.187   2.451   5.313  0.4892  0.2127  0.0466
 3452SOL    HW113806   0.207   2.388   5.382 -0.2278 -0.9281 -0.7600
 3452SOL    HW213807   0.249   2.431   5.243  1.4863  1.6334  0.4682
 3452SOL     MW13808   0.197   2.441   5.313  0.5250  0.2485 -0.0027
 3453SOL     OW13809   2.941   3.567   3.826  0.4467  0.2380 -0.3411
 3453SOL    HW113810   2.891   3.488   3.843 -0.2487  0.6928 -0.2257
 3453SOL    HW213811   2.917   3.592   3.737 -1.8498  2.0629  0.6812
 3453SOL     MW13812   2.931   3.560   3.817  0.0637  0.5298 -0.1954
 3454SOL     OW13813   2.028   0.786   3.525 -0.0825 -0.4026  0.0474
 3454SOL    HW113814   2.097   0.755   3.465 -0.7312 -0.6763 -0.5801
 3454SOL    HW213815   2.075   0.833   3.593  0.8847 -2.0572  0.5823
 3454SOL     MW13816   2.043   0.788   3.526 -0.0417 -0.6494  0.0356
 3455SOL     OW13817   1.656   2.844   3.001 -0.2221 -0.1715  0.0933
 3455SOL    HW113818   1.728   2.866   3.060 -0.3379  0.7604 -0.0994
 3455SOL    HW213819   1.631   2.755   3.026  1.7974 -1.0067 -0.6565
 3455SOL     MW13820   1.662   2.836   3.011  0.0216 -0.1591 -0.0274
 3456SOL     OW13821   2.863   2.024   2.400  0.2111 -0.2061 -0.3293
 3456SOL    HW113822   2.828   2.070   2.476  1.9002 -0.0338  0.3714
 3456SOL    HW213823   2.885   1.937   2.433 -0.4341 -0.6344 -0.9964
 3456SOL     MW13824   2.861   2.019   2.414  0.3447 -0.2389 -0.3250
 3457SOL     OW13825   2.719   2.843   3.869 -0.3442 -0.3380  0.2894
 3457SOL    HW113826   2.794   2.821   3.812 -0.9845  3.2720 -2.3085
 3457SOL    HW213827   2.642   2.828   3.814 -1.2125  0.3448  1.2780
 3457SOL     MW13828   2.719   2.839   3.854 -0.5373  0.2115  0.0834
 3458SOL     OW13829   5.253   4.837   3.452  0.3790  0.0897 -0.2535
 3458SOL    HW113830   5.259   4.924   3.413 -0.0984 -0.4501 -1.5892
 3458SOL    HW213831   5.174   4.839   3.506 -0.0083  0.2848 -0.8212
 3458SOL     MW13832   5.244   4.849   3.454  0.2683  0.0456 -0.4972
 3459SOL     OW13833   4.545   0.148   1.001 -0.3386 -0.3847  0.5951
 3459SOL    HW113834   4.627   0.144   0.952  0.3232 -0.2176  1.6534
 3459SOL    HW213835   4.529   0.241   1.016 -0.4354 -0.4397  0.8520
 3459SOL     MW13836   4.553   0.159   0.997 -0.2663 -0.3703  0.7634
 3460SOL     OW13837   2.564   3.678   3.370 -0.1470 -0.4385 -0.1047
 3460SOL    HW113838   2.474   3.671   3.340 -0.4098 -1.9631  0.9647
 3460SOL    HW213839   2.617   3.652   3.294 -0.6693 -1.2077 -0.2102
 3460SOL     MW13840   2.560   3.674   3.356 -0.2475 -0.7321  0.0187
 3461SOL     OW13841   2.911   4.332   5.406  0.0981  0.1455 -0.1323
 3461SOL    HW113842   2.897   4.415   5.451 -2.4091  0.4128 -1.2406
 3461SOL    HW213843   2.877   4.346   5.317  1.8718 -1.3472 -1.1237
 3461SOL     MW13844   2.905   4.344   5.400  0.0042 -0.0114 -0.4011
 3462SOL     OW13845   0.534   3.639   3.506 -0.0503  0.1241  0.4685
 3462SOL    HW113846   0.513   3.717   3.455  2.3349  1.5287  1.4693
 3462SOL    HW213847   0.629   3.638   3.511 -0.0629 -2.0650  1.7319
 3462SOL     MW13848   0.543   3.649   3.500  0.2534  0.0237  0.7583
 3463SOL     OW13849   2.994   5.278   0.764 -0.3698  0.1599 -0.2133
 3463SOL    HW113850   2.923   5.342   0.758 -1.6492 -1.1664  0.2213
 3463SOL    HW213851   2.994   5.249   0.855 -0.9025 -1.6134 -0.7352
 3463SOL     MW13852   2.985   5.282   0.775 -0.6018 -0.2369 -0.2245
 3464SOL     OW13853   0.465   4.891   1.837 -0.0076  0.0801 -0.0978
 3464SOL    HW113854   0.525   4.830   1.881 -1.9997 -1.2233  0.9399
 3464SOL    HW213855   0.434   4.948   1.908  0.6095  1.3223 -0.7842
 3464SOL     MW13856   0.469   4.891   1.852 -0.1836  0.0722 -0.0528
 3465SOL     OW13857   0.477   2.844   3.000 -0.2861  0.3501 -0.3300
 3465SOL    HW113858   0.520   2.901   3.063 -1.9216  2.5063 -1.0441
 3465SOL    HW213859   0.408   2.801   3.049 -0.4711  0.7049 -0.2824
 3465SOL     MW13860   0.474   2.846   3.014 -0.5191  0.6715 -0.4153
 3466SOL     OW13861   4.826   4.372   2.672  0.0531 -0.0740  0.0812
 3466SOL    HW113862   4.821   4.334   2.585 -0.2962 -2.1781  0.9712
 3466SOL    HW213863   4.758   4.440   2.672  0.4741  0.3755 -1.4561
 3466SOL     MW13864   4.816   4.376   2.661  0.0623 -0.2858 -0.0017
 3467SOL     OW13865   4.774   4.288   5.422  0.9157  0.7251 -0.0938
 3467SOL    HW113866   4.751   4.361   5.365  1.2165  0.5671 -0.4263
 3467SOL    HW213867   4.793   4.216   5.362 -1.5080 -0.3119  0.2670
 3467SOL     MW13868   4.774   4.288   5.407  0.6439  0.5721 -0.0902
 3468SOL     OW13869   3.247   0.290   4.644 -0.7022 -0.0285 -0.3315
 3468SOL    HW113870   3.156   0.279   4.672 -0.2230  0.7443  1.6937
 3468SOL    HW213871   3.285   0.203   4.651 -0.4094  0.2126  2.4043
 3468SOL     MW13872   3.240   0.278   4.649 -0.6034  0.1013  0.2780
 3469SOL     OW13873   3.397   3.622   2.183 -0.6594  0.0407  0.4234
 3469SOL    HW113874   3.435   3.690   2.127 -2.1878  1.4391  1.0077
 3469SOL    HW213875   3.470   3.594   2.239  0.2486  0.4519 -0.5200
 3469SOL     MW13876   3.412   3.627   2.183 -0.7388  0.2724  0.3775
 3470SOL     OW13877   1.758   1.087   2.785 -0.2842  0.1841  0.5362
 3470SOL    HW113878   1.675   1.062   2.826 -1.2825  2.7748  0.2532
 3470SOL    HW213879   1.812   1.117   2.858 -0.4621  0.6720  0.4719
 3470SOL     MW13880   1.754   1.088   2.800 -0.4348  0.5782  0.4917
 3471SOL     OW13881   5.308   3.097   1.714  0.0500 -0.1657 -0.4958
 3471SOL    HW113882   5.402   3.084   1.718  0.1366 -0.0248 -1.7493
 3471SOL    HW213883   5.297   3.190   1.695 -0.3762  0.0133  0.5507
 3471SOL     MW13884   5.318   3.107   1.712  0.0065 -0.1247 -0.5223
 3472SOL     OW13885   1.111   2.007   1.657 -0.0313  0.8135  0.4247
 3472SOL    HW113886   1.190   1.953   1.669 -0.9915 -1.2100 -1.4776
 3472SOL    HW213887   1.074   2.015   1.744  3.0894  3.3051  1.7109
 3472SOL     MW13888   1.116   2.001   1.669  0.2453  0.8734  0.3458
 3473SOL     OW13889   0.055   0.941   5.183  0.5700  0.1627  0.4124
 3473SOL    HW113890   0.124   0.879   5.207  0.3742  0.0361  0.6564
 3473SOL    HW213891   0.031   0.983   5.266  1.0974  0.9784  0.1688
 3473SOL     MW13892   0.061   0.939   5.197  0.6125  0.2509  0.4124
 3474SOL     OW13893   2.032   4.583   1.751 -0.3529  0.1548 -0.2266
 3474SOL    HW113894   2.027   4.675   1.725  1.5844  0.1108 -0.9219
 3474SOL    HW213895   2.071   4.539   1.675  1.9437 -0.6389  1.3363
 3474SOL     MW13896   2.036   4.589   1.738  0.1891  0.0475 -0.1155
 3475SOL     OW13897   3.226   5.303   1.189  0.7323  0.3476  0.1494
 3475SOL    HW113898   3.316   5.335   1.196  0.6187  0.7918 -0.4123
 3475SOL    HW213899   3.198   5.327   1.101  0.5393 -1.0413 -0.1997
 3475SOL     MW13900   3.234   5.310   1.179  0.6930  0.2266  0.0328
 3476SOL     OW13901   0.427   3.244   3.078 -0.7956 -0.2469  0.2261
 3476SOL    HW113902   0.336   3.216   3.092 -1.0883 -0.5091 -1.9020
 3476SOL    HW213903   0.423   3.340   3.079 -1.2702 -0.2474 -0.7473
 3476SOL     MW13904   0.414   3.253   3.080 -0.8938 -0.2805 -0.1709
 3477SOL     OW13905   2.969   1.831   3.807  0.4320  0.2249 -0.0551
 3477SOL    HW113906   2.921   1.914   3.819  0.9575  0.6936 -1.0635
 3477SOL    HW213907   3.024   1.825   3.884 -0.8785 -0.0843  0.8975
 3477SOL     MW13908   2.970   1.841   3.818  0.3315  0.2453 -0.0622
 3478SOL     OW13909   4.487   0.394   1.091  0.3943 -0.1853 -0.6577
 3478SOL    HW113910   4.396   0.371   1.112  0.7858 -0.8664  0.3556
 3478SOL    HW213911   4.483   0.488   1.072 -0.4675 -0.1292 -0.2741
 3478SOL     MW13912   4.475   0.403   1.091  0.3341 -0.2653 -0.4788
 3479SOL     OW13913   3.753   2.786   0.430 -0.0007  0.5326 -0.4429
 3479SOL    HW113914   3.661   2.766   0.414  0.6973 -4.2354  0.1753
 3479SOL    HW213915   3.781   2.837   0.354 -2.7787  0.9078 -1.3026
 3479SOL     MW13916   3.745   2.790   0.419 -0.2670 -0.0297 -0.4738
 3480SOL     OW13917   1.107   1.866   2.169 -0.0391 -0.3283  0.5979
 3480SOL    HW113918   1.062   1.864   2.084  1.7134  0.2272 -0.3968
 3480SOL    HW213919   1.038   1.848   2.233 -1.2308 -1.7876 -1.0007
 3480SOL     MW13920   1.092   1.863   2.166  0.0327 -0.4440  0.2659
 3481SOL     OW13921   3.591   5.098   4.391 -0.2230  0.8924  0.0419
 3481SOL    HW113922   3.547   5.076   4.308  0.3815  0.8959 -0.2845
 3481SOL    HW213923   3.570   5.026   4.449 -1.6555  1.4614  0.2750
 3481SOL     MW13924   3.582   5.086   4.388 -0.3290  0.9657  0.0300
 3482SOL     OW13925   0.757   5.061   3.833 -0.1118 -0.2111  0.5094
 3482SOL    HW113926   0.794   5.101   3.754 -0.0975 -1.1753  0.0181
 3482SOL    HW213927   0.696   5.127   3.866  0.8580  0.7452  0.4446
 3482SOL     MW13928   0.754   5.075   3.827  0.0142 -0.2121  0.4382
 3483SOL     OW13929   4.219   4.226   3.336  0.1707  0.8002 -0.7020
 3483SOL    HW113930   4.295   4.214   3.393  0.1600  0.9278 -0.6599
 3483SOL    HW213931   4.244   4.183   3.254 -0.5052 -0.9599 -0.0226
 3483SOL     MW13932   4.232   4.219   3.333  0.0828  0.5912 -0.6096
 3484SOL     OW13933   1.170   3.691   3.940 -0.1639 -0.1604 -0.0318
 3484SOL    HW113934   1.254   3.713   3.982  0.2772 -3.7573  1.3217
 3484SOL    HW213935   1.105   3.700   4.010 -0.6463  0.7591 -0.5740
 3484SOL     MW13936   1.172   3.695   3.954 -0.1692 -0.5032  0.0721
 3485SOL     OW13937   4.991   1.749   3.626 -0.5674 -0.0463  0.5902
 3485SOL    HW113938   4.896   1.746   3.639 -0.8221 -0.6928 -1.1326
 3485SOL    HW213939   5.021   1.661   3.647 -0.2046  0.3702  1.9093
 3485SOL     MW13940   4.982   1.737   3.630 -0.5536 -0.0757  0.5385
 3486SOL     OW13941   3.265   4.556   4.274  0.1558 -0.2856 -0.3005
 3486SOL    HW113942   3.196   4.557   4.341  1.2529  2.1734  0.9420
 3486SOL    HW213943   3.219   4.567   4.191 -1.0713 -0.7469  0.2979
 3486SOL     MW13944   3.250   4.557   4.272  0.1392 -0.0299 -0.0648
 3487SOL     OW13945   1.119   3.103   5.213  0.7736  0.1178  0.1327
 3487SOL    HW113946   1.103   3.187   5.171 -0.1072 -0.2910 -0.3884
 3487SOL    HW213947   1.083   3.112   5.301  0.8266  0.3439  0.1299
 3487SOL     MW13948   1.112   3.115   5.218  0.6677  0.0944  0.0656
 3488SOL     OW13949   5.234   0.619   0.221  0.0548  0.3324 -0.3667
 3488SOL    HW113950   5.265   0.659   0.139  1.0201  0.2444 -0.0576
 3488SOL    HW213951   5.175   0.685   0.258  0.1615  0.6740 -0.7861
 3488SOL     MW13952   5.230   0.633   0.215  0.1920  0.3649 -0.3808
 3489SOL     OW13953   0.055   3.251   3.668 -0.8506 -0.3347  0.9555
 3489SOL    HW113954  -0.028   3.237   3.623 -1.1665  1.3444  0.9250
 3489SOL    HW213955   0.033   3.252   3.761 -0.8503 -0.0013  0.9533
 3489SOL     MW13956   0.042   3.250   3.675 -0.8910 -0.0771  0.9513
 3490SOL     OW13957   5.253   2.494   3.067 -0.1299  0.3119  0.6101
 3490SOL    HW113958   5.309   2.416   3.061  1.0336  1.0667  1.3097
 3490SOL    HW213959   5.295   2.558   3.010  0.2775  1.1928  1.8453
 3490SOL     MW13960   5.266   2.492   3.059  0.0712  0.5213  0.8578
 3491SOL     OW13961   2.768   1.507   5.101 -0.3040 -0.2336 -0.5891
 3491SOL    HW113962   2.804   1.595   5.095  0.3387 -0.4828 -0.4660
 3491SOL    HW213963   2.690   1.516   5.156 -0.7213  0.3982 -1.2616
 3491SOL     MW13964   2.763   1.519   5.107 -0.2751 -0.1847 -0.6595
 3492SOL     OW13965   0.060   1.018   3.811 -0.5811  0.4921  0.4597
 3492SOL    HW113966   0.025   1.059   3.732 -1.0586  0.0616  0.4411
 3492SOL    HW213967   0.149   1.053   3.820 -0.5671  0.6270 -0.2032
 3492SOL     MW13968   0.067   1.028   3.802 -0.6404  0.4543  0.3724
 3493SOL     OW13969   2.442   2.224   0.615  0.7370 -0.0642  0.0746
 3493SOL    HW113970   2.491   2.297   0.655  1.9326  0.0729 -1.5651
 3493SOL    HW213971   2.503   2.151   0.616  0.3389 -0.4046 -0.3824
 3493SOL     MW13972   2.456   2.224   0.620  0.8391 -0.0902 -0.1938
 3494SOL     OW13973   1.295   1.352   0.158  0.0587 -0.4113  0.0879
 3494SOL    HW113974   1.263   1.321   0.074 -1.0477 -1.6251  0.9024
 3494SOL    HW213975   1.304   1.447   0.148 -1.2952 -0.3698 -1.0066
 3494SOL     MW13976   1.292   1.360   0.146 -0.2562 -0.5613  0.0521
 3495SOL     OW13977   2.631   1.604   3.784 -0.0667  0.1387  0.0301
 3495SOL    HW113978   2.691   1.650   3.726  0.2764  1.6529  1.5015
 3495SOL    HW213979   2.681   1.591   3.865 -0.2727 -2.5722 -0.1834
 3495SOL     MW13980   2.645   1.608   3.787 -0.0492 -0.0145  0.1912
 3496SOL     OW13981   1.898   3.554   3.639 -0.2605 -0.4782 -0.0627
 3496SOL    HW113982   1.816   3.599   3.661 -0.7201 -0.6581 -1.3396
 3496SOL    HW213983   1.966   3.619   3.655 -0.8642  0.4810 -1.2875
 3496SOL     MW13984   1.896   3.568   3.644 -0.3966 -0.3784 -0.3830
 3497SOL     OW13985   3.281   3.249   3.686 -0.4387 -0.2504  0.6479
 3497SOL    HW113986   3.272   3.335   3.645  1.9559  0.7439  2.0113
 3497SOL    HW213987   3.192   3.226   3.714 -1.8557 -0.1251 -3.1514
 3497SOL     MW13988   3.268   3.257   3.685 -0.3136 -0.1071  0.3361
 3498SOL     OW13989   1.469   0.435   3.354  0.1325 -0.0161  0.2766
 3498SOL    HW113990   1.423   0.381   3.418  1.5445  0.2725  1.5942
 3498SOL    HW213991   1.451   0.394   3.270 -0.9388 -1.0027  0.9659
 3498SOL     MW13992   1.461   0.423   3.351  0.1761 -0.1055  0.5335
 3499SOL     OW13993   5.278   4.915   4.997 -0.6963 -0.3495 -0.4124
 3499SOL    HW113994   5.242   4.890   5.082  0.7015  0.1114  0.3446
 3499SOL    HW213995   5.346   4.851   4.979  1.0225  1.2115  0.2403
 3499SOL     MW13996   5.282   4.904   5.005 -0.2973 -0.0906 -0.2319
 3500SOL     OW13997   1.712   4.756   1.028  0.0532 -0.0404  0.2006
 3500SOL    HW113998   1.789   4.782   0.976  0.2268 -0.1562  0.3995
 3500SOL    HW213999   1.668   4.838   1.048  0.2760  0.0518  0.3200
 3500SOL     MW14000   1.716   4.770   1.024  0.1039 -0.0434  0.2413
 3501SOL     OW14001   3.214   3.594   3.750 -0.0991  0.0939 -0.4775
 3501SOL    HW114002   3.267   3.649   3.808  1.7568 -2.2407  0.1976
 3501SOL    HW214003   3.142   3.563   3.806  1.1193 -1.3303  0.3831
 3501SOL     MW14004   3.212   3.597   3.765  0.2944 -0.3873 -0.2809
 3502SOL     OW14005   5.307   0.849   2.997 -0.4766  0.1959  0.8245
 3502SOL    HW114006   5.231   0.826   2.943  0.3348 -0.8114  0.0839
 3502SOL    HW214007   5.347   0.765   3.019  1.1556  0.7623  0.1300
 3502SOL     MW14008   5.302   0.835   2.993 -0.1638  0.1394  0.6408
 3503SOL     OW14009   2.830   0.363   3.650 -0.4461  0.4135  0.4026
 3503SOL    HW114010   2.754   0.320   3.690 -0.0073 -1.4885 -0.6610
 3503SOL    HW214011   2.898   0.359   3.717 -0.5712 -0.0907  0.5037
 3503SOL     MW14012   2.829   0.357   3.664 -0.4059  0.1055  0.2794
 3504SOL     OW14013   2.235   4.712   1.279  0.1805  0.5415  0.0945
 3504SOL    HW114014   2.307   4.766   1.245 -0.1117  0.4692 -0.6531
 3504SOL    HW214015   2.160   4.736   1.224  0.2009 -1.1146 -0.6996
 3504SOL     MW14016   2.234   4.722   1.268  0.1457  0.3203 -0.1028
 3505SOL     OW14017   4.097   0.751   0.096 -0.0452  0.3780 -0.2638
 3505SOL    HW114018   4.117   0.668   0.053  1.3842  0.4528  0.2276
 3505SOL    HW214019   4.116   0.818   0.030 -1.0155  0.3416 -0.5959
 3505SOL     MW14020   4.102   0.749   0.082  0.0136  0.3829 -0.2434
 3506SOL     OW14021   4.477   5.380   3.516  0.4982  0.2281 -0.3339
 3506SOL    HW114022   4.571   5.375   3.537  0.4863 -0.8032 -0.4730
 3506SOL    HW214023   4.454   5.471   3.532  1.5678  0.5370 -0.4528
 3506SOL     MW14024   4.486   5.391   3.521  0.6336  0.1356 -0.3669
 3507SOL     OW14025   4.319   3.598   5.014  0.2404  0.0850  0.5388
 3507SOL    HW114026   4.372   3.621   5.090 -1.6738  0.0304  1.9398
 3507SOL    HW214027   4.278   3.514   5.037 -0.6854  0.2642 -0.3779
 3507SOL     MW14028   4.321   3.590   5.026 -0.1232  0.1010  0.6008
 3508SOL     OW14029   0.036   2.194   5.150 -0.3198  0.2253 -0.0129
 3508SOL    HW114030   0.117   2.143   5.156  0.3697  1.3455  0.4249
 3508SOL    HW214031   0.049   2.268   5.209 -2.0897 -0.1214  0.9112
 3508SOL     MW14032   0.048   2.197   5.158 -0.4581  0.3243  0.1614
 3509SOL     OW14033   1.591   0.652   1.558 -0.1987 -0.0922  0.4706
 3509SOL    HW114034   1.665   0.699   1.597 -1.5100  1.4535  1.1788
 3509SOL    HW214035   1.524   0.651   1.626 -1.8987  1.1065 -1.0873
 3509SOL     MW14036   1.592   0.658   1.572 -0.5842  0.2591  0.3618
 3510SOL     OW14037   3.517   2.332   1.197  0.7146  0.2435  0.2400
 3510SOL    HW114038   3.557   2.292   1.119  0.0282  0.9600 -0.5007
 3510SOL    HW214039   3.589   2.378   1.240  0.8024  1.1195 -0.8163
 3510SOL     MW14040   3.531   2.333   1.192  0.6379  0.4473  0.0100
 3511SOL     OW14041   3.884   2.195   3.306 -0.0743 -0.2039  0.3467
 3511SOL    HW114042   3.823   2.264   3.279  2.1786  1.3977 -0.9847
 3511SOL    HW214043   3.924   2.164   3.225  0.1150 -2.0011  1.0777
 3511SOL     MW14044   3.881   2.200   3.292  0.2384 -0.2289  0.2698
 3512SOL     OW14045   3.078   1.542   0.690 -0.5178  0.2221 -0.3441
 3512SOL    HW114046   3.031   1.536   0.773 -1.9513  1.1767 -1.0361
 3512SOL    HW214047   3.027   1.488   0.629  0.1326  0.0709 -0.7709
 3512SOL     MW14048   3.066   1.534   0.693 -0.6180  0.3250 -0.4873
 3513SOL     OW14049   3.253   0.499   2.985  0.0933  0.2726  0.1691
 3513SOL    HW114050   3.168   0.455   2.986  1.0680 -1.7054  1.5170
 3513SOL    HW214051   3.232   0.592   2.997 -1.8500 -0.2016  0.7264
 3513SOL     MW14052   3.239   0.505   2.986 -0.0307 -0.0413  0.4130
 3514SOL     OW14053   0.863   3.914   3.467  0.6468  0.0242  0.0742
 3514SOL    HW114054   0.824   3.917   3.380 -1.4537 -0.9287  0.9234
 3514SOL    HW214055   0.858   3.822   3.493  1.1018  0.3178  1.2745
 3514SOL     MW14056   0.857   3.903   3.459  0.4361 -0.0602  0.3365
 3515SOL     OW14057   1.114   2.435   5.118 -0.3089  0.0749  0.1063
 3515SOL    HW114058   1.050   2.367   5.140  0.4362 -0.1207  1.8115
 3515SOL    HW214059   1.063   2.504   5.077 -1.2465 -1.0462 -0.6817
 3515SOL     MW14060   1.099   2.435   5.116 -0.3336 -0.0937  0.2237
 3516SOL     OW14061   0.400   0.680   2.779  0.0440  0.2440  0.6042
 3516SOL    HW114062   0.455   0.756   2.760 -0.2847  0.5383  0.8263
 3516SOL    HW214063   0.311   0.709   2.762  0.0576 -0.8754 -1.8965
 3516SOL     MW14064   0.396   0.693   2.774  0.0037  0.1384  0.3125
 3517SOL     OW14065   0.824   3.569   4.718  0.1994  0.1692  0.6959
 3517SOL    HW114066   0.766   3.642   4.696  0.1108 -0.2982 -0.7415
 3517SOL    HW214067   0.859   3.540   4.633  4.2564  1.7881  1.6001
 3517SOL     MW14068   0.821   3.575   4.704  0.7074  0.3166  0.6276
 3518SOL     OW14069   4.720   3.319   4.962 -0.2719  0.2959  0.1102
 3518SOL    HW114070   4.686   3.386   4.903  0.7445  0.2725 -0.5117
 3518SOL    HW214071   4.756   3.252   4.905 -0.1047 -0.1704  0.7464
 3518SOL     MW14072   4.720   3.319   4.947 -0.1204  0.2332  0.1121
 3519SOL     OW14073   0.932   2.551   1.476  0.1991 -0.0266  0.0488
 3519SOL    HW114074   0.933   2.587   1.565  3.1812 -1.9514  0.9216
 3519SOL    HW214075   0.988   2.609   1.425 -1.6563  1.1872 -0.7461
 3519SOL     MW14076   0.939   2.563   1.481  0.3434 -0.1176  0.0588
 3520SOL     OW14077   2.859   3.962   3.789 -0.1284 -0.5619 -0.1349
 3520SOL    HW114078   2.804   3.893   3.825 -2.1503  0.7057 -0.6119
 3520SOL    HW214079   2.797   4.027   3.756  1.6789  0.7676 -1.0988
 3520SOL     MW14080   2.844   3.962   3.789 -0.1559 -0.2295 -0.3194
 3521SOL     OW14081   3.049   3.349   4.990 -0.2481  0.3751 -0.1520
 3521SOL    HW114082   3.000   3.375   5.069 -1.4512  0.4737 -0.9143
 3521SOL    HW214083   3.097   3.271   5.017 -0.0076  0.8578  0.9040
 3521SOL     MW14084   3.049   3.342   5.004 -0.3713  0.4495 -0.1144
 3522SOL     OW14085   4.644   1.627   3.961 -0.3264  0.2242 -0.3097
 3522SOL    HW114086   4.590   1.581   4.025  2.0093 -0.8241  1.0146
 3522SOL    HW214087   4.653   1.715   3.997 -0.3955  0.1258 -0.0472
 3522SOL     MW14088   4.638   1.632   3.974 -0.0363  0.0774 -0.1066
 3523SOL     OW14089   2.920   2.268   1.782  0.0259  0.5672 -0.3062
 3523SOL    HW114090   2.856   2.334   1.807 -0.0370  0.9439 -1.3957
 3523SOL    HW214091   2.943   2.223   1.863 -1.3341  0.6813  0.1501
 3523SOL     MW14092   2.915   2.271   1.795 -0.1562  0.6300 -0.3872
 3524SOL     OW14093   2.739   4.759   1.056  0.1857  0.0736 -0.4613
 3524SOL    HW114094   2.805   4.792   0.995  0.5871  0.1682  0.0227
 3524SOL    HW214095   2.779   4.682   1.096 -0.0404  0.0683 -0.2389
 3524SOL     MW14096   2.752   4.753   1.053  0.2081  0.0850 -0.3708
 3525SOL     OW14097   4.292   4.023   4.658  0.0948  0.7356 -0.6421
 3525SOL    HW114098   4.344   3.996   4.583  0.9486  1.2928 -0.2667
 3525SOL    HW214099   4.228   4.084   4.622  0.2518  0.7052 -0.9832
 3525SOL     MW14100   4.291   4.028   4.644  0.2242  0.8030 -0.6377
 3526SOL     OW14101   1.697   2.674   3.340 -0.8506 -0.4365  0.2236
 3526SOL    HW114102   1.683   2.748   3.398 -1.8039 -0.1326 -0.3680
 3526SOL    HW214103   1.628   2.682   3.274  0.2262 -0.7444 -0.9748
 3526SOL     MW14104   1.686   2.684   3.339 -0.8348 -0.4370 -0.0056
 3527SOL     OW14105   4.815   5.334   1.325 -0.1087  0.2989 -0.1949
 3527SOL    HW114106   4.745   5.279   1.289 -2.5749  1.9285  1.7732
 3527SOL    HW214107   4.832   5.398   1.256 -0.9292  0.1735 -0.5323
 3527SOL     MW14108   4.808   5.335   1.312 -0.5295  0.4914  0.0138
 3528SOL     OW14109   4.543   4.520   2.369 -0.7500  0.3760 -0.0062
 3528SOL    HW114110   4.568   4.551   2.456 -0.5107 -0.9108  0.4067
 3528SOL    HW214111   4.451   4.543   2.361 -0.3184  2.2376 -0.2260
 3528SOL     MW14112   4.535   4.527   2.379 -0.6641  0.4495  0.0185
 3529SOL     OW14113   1.385   4.960   3.042  0.5799  0.3434 -0.5098
 3529SOL    HW114114   1.413   4.887   3.098  0.1633  0.7025  0.1919
 3529SOL    HW214115   1.456   5.023   3.048  0.2019  0.7114  0.2498
 3529SOL     MW14116   1.398   4.959   3.050  0.4782  0.4365 -0.3227
 3530SOL     OW14117   0.638   3.275   2.655 -0.4507  0.5453 -0.3899
 3530SOL    HW114118   0.725   3.247   2.627 -0.3685 -1.0174  1.2255
 3530SOL    HW214119   0.579   3.235   2.591 -0.1032 -0.3447 -0.1688
 3530SOL     MW14120   0.642   3.266   2.643 -0.3957  0.2313 -0.1548
 3531SOL     OW14121   3.227   1.957   0.656 -0.2135  0.2601 -0.4550
 3531SOL    HW114122   3.217   2.045   0.620 -0.8114 -0.3331 -1.8152
 3531SOL    HW214123   3.137   1.926   0.671 -0.0954 -0.7920 -1.7527
 3531SOL     MW14124   3.214   1.964   0.654 -0.2749  0.0495 -0.7953
 3532SOL     OW14125   5.059   2.355   0.970  0.2633 -0.6597  0.0378
 3532SOL    HW114126   4.999   2.426   0.991  0.3849 -0.4874 -0.1791
 3532SOL    HW214127   5.108   2.339   1.051  2.0279  1.2579 -0.5591
 3532SOL     MW14128   5.058   2.362   0.983  0.5048 -0.3922 -0.0663
 3533SOL     OW14129   5.163   2.716   5.122 -0.1376  0.2300 -0.6570
 3533SOL    HW114130   5.217   2.794   5.118 -0.9191  0.8459  0.2006
 3533SOL    HW214131   5.106   2.722   5.046 -1.4596  1.5004  0.3731
 3533SOL     MW14132   5.162   2.726   5.112 -0.4069  0.4714 -0.4154
 3534SOL     OW14133   2.899   0.800   0.947 -0.1513  0.2887  0.2072
 3534SOL    HW114134   2.963   0.804   1.018 -1.1464 -1.0321  1.2275
 3534SOL    HW214135   2.838   0.871   0.966 -0.5499 -0.2135  0.8208
 3534SOL     MW14136   2.899   0.810   0.958 -0.3297  0.0553  0.4163
 3535SOL     OW14137   4.351   1.474   0.937 -0.5555 -0.1213  0.2040
 3535SOL    HW114138   4.361   1.407   0.869  0.4732  1.8455 -1.7197
 3535SOL    HW214139   4.256   1.489   0.940 -0.5886  0.1286 -1.2285
 3535SOL     MW14140   4.340   1.467   0.928 -0.4281  0.1624 -0.2256
 3536SOL     OW14141   3.558   2.759   4.044 -0.0828 -0.1925 -0.0682
 3536SOL    HW114142   3.650   2.764   4.019  0.0514  0.0188  0.4538
 3536SOL    HW214143   3.510   2.786   3.966  0.2772 -0.7790 -0.4976
 3536SOL     MW14144   3.563   2.763   4.031 -0.0196 -0.2405 -0.0564
 3537SOL     OW14145   1.456   3.019   0.390 -0.1386 -0.3338  0.6180
 3537SOL    HW114146   1.457   3.080   0.316 -0.6305  0.1132  0.9766
 3537SOL    HW214147   1.407   2.943   0.357 -0.6226 -0.0089  0.5771
 3537SOL     MW14148   1.450   3.017   0.376 -0.2635 -0.2350  0.6586
 3538SOL     OW14149   4.211   1.050   4.213 -0.0147  0.0967 -0.0900
 3538SOL    HW114150   4.176   0.998   4.286  1.5884  0.0612  0.7090
 3538SOL    HW214151   4.150   1.035   4.141 -0.7101 -1.2563  0.7397
 3538SOL     MW14152   4.199   1.041   4.213  0.1015 -0.0811  0.1185
 3539SOL     OW14153   3.972   2.619   0.493 -0.4113 -0.5778  0.4578
 3539SOL    HW114154   3.965   2.570   0.575  0.4653 -0.2350  0.7533
 3539SOL    HW214155   3.889   2.666   0.485 -0.2702 -0.1257  1.4689
 3539SOL     MW14156   3.961   2.619   0.502 -0.2810 -0.4760  0.6250
 3540SOL     OW14157   0.037   3.849   2.931  0.4735  0.4618 -0.4099
 3540SOL    HW114158   0.003   3.786   2.994  1.6468 -1.0512 -1.2238
 3540SOL    HW214159   0.093   3.908   2.983 -0.0214  0.3746  0.2324
 3540SOL     MW14160   0.040   3.849   2.945  0.5603  0.2569 -0.4318
 3541SOL     OW14161   4.795   2.854   1.586 -0.2846 -0.2372  0.3752
 3541SOL    HW114162   4.729   2.823   1.648 -1.6284  1.9727  0.1355
 3541SOL    HW214163   4.765   2.822   1.501 -0.7397  0.2447  0.3476
 3541SOL     MW14164   4.783   2.846   1.583 -0.5149  0.1073  0.3410
 3542SOL     OW14165   3.647   2.243   2.659  0.4642  0.6030 -0.3106
 3542SOL    HW114166   3.690   2.325   2.636 -0.1820  0.9881 -0.1676
 3542SOL    HW214167   3.686   2.178   2.600  1.1628  0.9559 -0.2500
 3542SOL     MW14168   3.658   2.245   2.649  0.4709  0.6975 -0.2846
 3543SOL     OW14169   4.189   1.333   2.490 -0.0649  0.1622 -0.0686
 3543SOL    HW114170   4.130   1.312   2.562 -0.6200 -0.6025 -0.7199
 3543SOL    HW214171   4.277   1.329   2.529 -0.3059 -1.0360  0.4038
 3543SOL     MW14172   4.193   1.330   2.504 -0.1668 -0.0891 -0.0915
 3544SOL     OW14173   2.668   0.579   2.998  0.0430 -0.4972 -0.3969
 3544SOL    HW114174   2.655   0.673   2.987 -0.8649 -0.6671 -0.9779
 3544SOL    HW214175   2.675   0.565   3.092  0.2842  0.1653 -0.3178
 3544SOL     MW14176   2.667   0.589   3.008 -0.0424 -0.4341 -0.4611
 3545SOL     OW14177   3.989   2.759   5.245 -0.1161  0.1295  0.4207
 3545SOL    HW114178   4.006   2.701   5.319  0.5179  0.2293  0.3553
 3545SOL    HW214179   4.047   2.727   5.176 -0.7755 -0.0294 -0.0766
 3545SOL     MW14180   3.998   2.747   5.245 -0.1194  0.1220  0.3487
 3546SOL     OW14181   2.606   1.286   4.344  0.1122  0.0288 -0.2455
 3546SOL    HW114182   2.520   1.303   4.383 -0.0646 -1.2542 -0.0208
 3546SOL    HW214183   2.652   1.370   4.349 -0.7920  0.4998  0.4971
 3546SOL     MW14184   2.601   1.299   4.350 -0.0262 -0.0752 -0.1217
 3547SOL     OW14185   4.277   2.605   1.695  0.5345 -0.5300  0.4106
 3547SOL    HW114186   4.275   2.636   1.605 -1.5483 -0.6402  0.3682
 3547SOL    HW214187   4.250   2.680   1.748 -1.4138 -1.2805  0.5927
 3547SOL     MW14188   4.273   2.618   1.690  0.0185 -0.6402  0.4285
 3548SOL     OW14189   1.193   0.386   4.583 -0.1712  0.0517  0.0363
 3548SOL    HW114190   1.252   0.402   4.656 -0.0657  1.7080 -0.3655
 3548SOL    HW214191   1.198   0.465   4.530 -0.7088 -0.8599 -1.4532
 3548SOL     MW14192   1.201   0.398   4.585 -0.2265  0.1470 -0.2058
 3549SOL     OW14193  -0.004   3.250   4.156  0.0456  0.0395  0.2023
 3549SOL    HW114194   0.042   3.166   4.166 -0.2761 -0.1667 -0.0653
 3549SOL    HW214195   0.064   3.315   4.174  0.5863 -0.2493 -0.7077
 3549SOL     MW14196   0.011   3.247   4.160  0.0736 -0.0239  0.0516
 3550SOL     OW14197   1.548   3.094   2.866 -0.2519 -0.1963  0.3555
 3550SOL    HW114198   1.587   3.014   2.900  1.8493  0.5712 -0.0937
 3550SOL    HW214199   1.568   3.161   2.931 -1.1644  0.1682  0.2820
 3550SOL     MW14200   1.556   3.092   2.879 -0.0997 -0.0514  0.2886
 3551SOL     OW14201   2.635   2.710   1.613  0.4885 -0.2510 -0.0392
 3551SOL    HW114202   2.719   2.671   1.590  0.2981 -1.3694  1.0236
 3551SOL    HW214203   2.637   2.717   1.709 -1.2648 -1.9279  0.1981
 3551SOL     MW14204   2.646   2.706   1.623  0.2397 -0.6088  0.1272
 3552SOL     OW14205   3.958   1.756   2.047  0.5792  0.0032  0.6526
 3552SOL    HW114206   4.030   1.693   2.051 -0.3117 -1.3418 -1.9012
 3552SOL    HW214207   3.891   1.720   2.105  0.9938 -0.0816  1.0852
 3552SOL     MW14208   3.959   1.743   2.055  0.5182 -0.1798  0.3811
 3553SOL     OW14209   0.075   3.867   4.343  0.1911  0.2697  0.5453
 3553SOL    HW114210   0.158   3.883   4.298 -0.3343 -0.4190 -0.7175
 3553SOL    HW214211   0.036   3.954   4.351  0.5717  0.4756  0.2176
 3553SOL     MW14212   0.081   3.880   4.338  0.1726  0.2079  0.3417
 3554SOL     OW14213   0.267   0.867   4.919 -0.2233 -0.2037  0.3016
 3554SOL    HW114214   0.260   0.825   5.005 -0.9427 -1.8069 -0.4963
 3554SOL    HW214215   0.251   0.797   4.857 -0.2054  1.0252 -1.1488
 3554SOL     MW14216   0.264   0.853   4.922 -0.3131 -0.2516  0.0138
 3555SOL     OW14217   4.047   2.869   4.273  0.5608  0.3013  0.1095
 3555SOL    HW114218   3.970   2.927   4.272  0.4312  0.1585  0.9046
 3555SOL    HW214219   4.011   2.782   4.292  0.7256 -0.1066 -1.3410
 3555SOL     MW14220   4.032   2.865   4.275  0.5653  0.2308  0.0256
 3556SOL     OW14221   3.005   5.227   5.388 -0.1888 -1.0681  0.0468
 3556SOL    HW114222   3.056   5.161   5.342 -0.8151 -2.3694  1.1330
 3556SOL    HW214223   2.936   5.177   5.432 -0.0187  0.1651  1.8142
 3556SOL     MW14224   3.002   5.212   5.388 -0.2472 -1.0768  0.4121
 3557SOL     OW14225   4.055   2.640   1.336  0.3397  0.0790 -0.1431
 3557SOL    HW114226   4.055   2.547   1.312  2.0844 -0.3708  1.3661
 3557SOL    HW214227   3.967   2.656   1.371 -0.1992 -0.8017 -1.0450
 3557SOL     MW14228   4.044   2.630   1.338  0.4940 -0.0913 -0.0654
 3558SOL     OW14229   0.688   1.785   0.577  0.1172  0.2140  0.1393
 3558SOL    HW114230   0.637   1.851   0.623 -0.4502  0.3837 -0.7030
 3558SOL    HW214231   0.623   1.739   0.522  0.4669 -1.1253  0.7947
 3558SOL     MW14232   0.673   1.787   0.576  0.0893  0.0642  0.1154
 3559SOL     OW14233   4.846   0.855   2.626 -0.0690 -0.1814  0.1576
 3559SOL    HW114234   4.775   0.796   2.652  1.0752 -0.5903  2.6588
 3559SOL    HW214235   4.851   0.919   2.697  0.9218  0.8870 -0.8429
 3559SOL     MW14236   4.838   0.855   2.638  0.2043 -0.0970  0.3497
 3560SOL     OW14237   3.997   0.261   3.228 -0.2146 -0.2478 -0.5149
 3560SOL    HW114238   3.909   0.270   3.264 -0.3577 -0.5875 -0.7804
 3560SOL    HW214239   3.985   0.261   3.133  0.0172 -0.8323 -0.5488
 3560SOL     MW14240   3.984   0.262   3.220 -0.2032 -0.3661 -0.5532
 3561SOL     OW14241   3.625   0.416   5.417  0.6857 -0.1986  0.4340
 3561SOL    HW114242   3.706   0.437   5.371  0.9379 -0.4176  0.7694
 3561SOL    HW214243   3.583   0.348   5.364  1.1188 -0.6601  0.6789
 3561SOL     MW14244   3.630   0.410   5.404  0.7734 -0.2857  0.5083
 3562SOL     OW14245   3.786   3.705   0.635 -0.0905 -0.4034  0.6306
 3562SOL    HW114246   3.764   3.713   0.727 -0.4385  2.3170  0.4099
 3562SOL    HW214247   3.882   3.701   0.633  0.0503  1.7224  1.0815
 3562SOL     MW14248   3.795   3.706   0.646 -0.1171  0.2170  0.6601
 3563SOL     OW14249   1.207   1.550   1.262  0.0045 -0.5986 -0.1715
 3563SOL    HW114250   1.116   1.580   1.263  0.6317  1.4290 -0.0775
 3563SOL    HW214251   1.204   1.465   1.307 -1.8244 -0.5677 -0.1496
 3563SOL     MW14252   1.195   1.543   1.268 -0.1494 -0.3351 -0.1566
 3564SOL     OW14253   3.575   3.497   3.450 -0.2693 -0.6143 -0.0586
 3564SOL    HW114254   3.622   3.449   3.518  0.9543  2.0843  1.1296
 3564SOL    HW214255   3.622   3.478   3.369 -0.4252 -2.1368  0.1779
 3564SOL     MW14256   3.587   3.488   3.449 -0.1326 -0.4637  0.1238
 3565SOL     OW14257   1.121   1.026   4.668  0.2406  0.1962 -0.1062
 3565SOL    HW114258   1.128   1.004   4.760  2.1309  1.1907  0.0412
 3565SOL    HW214259   1.028   1.039   4.653 -0.1646 -0.6612  1.4769
 3565SOL     MW14260   1.110   1.025   4.678  0.4307  0.2138  0.1153
 3566SOL     OW14261   3.518   0.214   1.130 -0.1558 -0.3607  0.2724
 3566SOL    HW114262   3.570   0.285   1.167  1.5630 -1.1634 -0.4446
 3566SOL    HW214263   3.438   0.212   1.182  0.8642  0.4495  1.9585
 3566SOL     MW14264   3.515   0.223   1.141  0.1948 -0.3597  0.3964
 3567SOL     OW14265   3.230   4.915   4.704  0.3676 -0.1700 -0.7330
 3567SOL    HW114266   3.162   4.848   4.701 -0.9759  1.1686 -1.0876
 3567SOL    HW214267   3.255   4.920   4.796 -0.4826 -0.2359 -0.4889
 3567SOL     MW14268   3.225   4.907   4.715  0.0868 -0.0071 -0.7471
 3568SOL     OW14269   4.183   3.777   1.433 -0.3333  0.4652 -0.1364
 3568SOL    HW114270   4.207   3.856   1.482 -1.4069 -0.5405  2.1699
 3568SOL    HW214271   4.111   3.805   1.377  0.3855  1.4790 -0.5830
 3568SOL     MW14272   4.177   3.791   1.432 -0.3787  0.4663  0.1017
 3569SOL     OW14273   2.112   0.564   0.105 -0.1714 -0.1562  0.3935
 3569SOL    HW114274   2.064   0.644   0.129 -0.0142 -0.4560  1.8131
 3569SOL    HW214275   2.198   0.595   0.076 -0.2793  0.2192  0.4676
 3569SOL     MW14276   2.117   0.578   0.104 -0.1651 -0.1465  0.5847
 3570SOL     OW14277   3.659   1.827   3.907 -0.0702 -0.1284 -0.1892
 3570SOL    HW114278   3.681   1.906   3.957 -0.2079 -0.6942  0.8033
 3570SOL    HW214279   3.689   1.846   3.818 -0.9559  1.4142 -0.2054
 3570SOL     MW14280   3.666   1.840   3.902 -0.2012 -0.0033 -0.0643
 3571SOL     OW14281   4.056   2.327   5.282 -0.2784  0.3495 -0.2513
 3571SOL    HW114282   4.117   2.388   5.324  0.9563 -0.6837 -0.4880
 3571SOL    HW214283   3.970   2.367   5.295  0.2011  0.8218  1.9400
 3571SOL     MW14284   4.053   2.340   5.289 -0.0590  0.2777 -0.0011
 3572SOL     OW14285   0.200   1.116   2.426 -0.1466 -0.2162 -0.3655
 3572SOL    HW114286   0.250   1.098   2.506  0.3769  2.5018  0.0165
 3572SOL    HW214287   0.266   1.142   2.362 -0.7294 -0.7159 -1.1949
 3572SOL     MW14288   0.215   1.117   2.428 -0.1542  0.0678 -0.4228
 3573SOL     OW14289   2.521   0.997   4.338 -0.1066 -0.1549  0.0787
 3573SOL    HW114290   2.494   1.018   4.249 -1.1425 -2.3713 -0.2176
 3573SOL    HW214291   2.449   1.028   4.393 -0.4953 -0.6833 -0.1122
 3573SOL     MW14292   2.508   1.003   4.333 -0.2890 -0.5063  0.0163
 3574SOL     OW14293   2.011   0.297   4.883 -0.2120 -0.1491 -0.5095
 3574SOL    HW114294   2.003   0.337   4.970  1.9371 -0.6976 -0.0016
 3574SOL    HW214295   1.943   0.229   4.882  0.2524 -0.6886  1.1097
 3574SOL     MW14296   2.001   0.293   4.894  0.1226 -0.2884 -0.2372
 3575SOL     OW14297   2.744   4.313   2.635 -0.2889  0.0324  0.1311
 3575SOL    HW114298   2.737   4.402   2.670 -0.3897  0.7323 -1.5339
 3575SOL    HW214299   2.731   4.324   2.540  0.5903 -1.6381 -0.2249
 3575SOL     MW14300   2.742   4.326   2.627 -0.1893 -0.0918 -0.1276
 3576SOL     OW14301   2.639   4.317   2.092 -0.7155 -0.4198 -0.0227
 3576SOL    HW114302   2.595   4.399   2.071  0.7395  0.4416  0.2131
 3576SOL    HW214303   2.715   4.314   2.034 -0.3217 -1.2222  0.5159
 3576SOL     MW14304   2.643   4.327   2.082 -0.4789 -0.4122  0.0764
 3577SOL     OW14305   3.915   1.934   2.246 -0.0017 -0.3183  0.7380
 3577SOL    HW114306   3.845   1.987   2.206 -1.0773 -1.1869  1.3995
 3577SOL    HW214307   3.961   1.895   2.172  0.6410  1.2943  0.2403
 3577SOL     MW14308   3.912   1.936   2.232 -0.0571 -0.2230  0.7590
 3578SOL     OW14309   1.175   0.732   4.732 -0.1588  0.7979  0.2890
 3578SOL    HW114310   1.216   0.802   4.681 -0.2575  0.5664 -0.1074
 3578SOL    HW214311   1.247   0.674   4.756 -0.1923  0.6309 -0.0230
 3578SOL     MW14312   1.190   0.734   4.729 -0.1757  0.7469  0.1983
 3579SOL     OW14313   1.376   1.100   2.655 -0.2319  0.2219  0.3843
 3579SOL    HW114314   1.323   1.171   2.618 -1.2890 -0.3937  0.6766
 3579SOL    HW214315   1.317   1.025   2.657  0.6223 -0.4492  0.8558
 3579SOL     MW14316   1.362   1.100   2.650 -0.2579  0.0572  0.4821
 3580SOL     OW14317   3.908   3.460   0.931 -0.2461 -0.2966  0.2512
 3580SOL    HW114318   3.867   3.378   0.956 -1.0010  0.2649  0.9031
 3580SOL    HW214319   3.960   3.439   0.853 -0.0044 -1.4956  0.7251
 3580SOL     MW14320   3.910   3.447   0.924 -0.3118 -0.3782  0.3953
 3581SOL     OW14321   4.695   5.212   5.260 -0.0371 -0.4550  0.0496
 3581SOL    HW114322   4.679   5.285   5.320  0.3834 -0.4224  0.1279
 3581SOL    HW214323   4.685   5.134   5.315  0.3564 -0.4248  0.1740
 3581SOL     MW14324   4.692   5.212   5.275  0.0671 -0.4470  0.0755
 3582SOL     OW14325   3.325   2.875   1.095  0.3060  0.3327  0.0517
 3582SOL    HW114326   3.236   2.863   1.128  0.5682  0.0624  0.6864
 3582SOL    HW214327   3.321   2.954   1.041 -0.2829  0.4120  0.2121
 3582SOL     MW14328   3.313   2.884   1.092  0.2642  0.3082  0.1535
 3583SOL     OW14329   0.823   5.241   4.283  0.6549 -0.3448 -0.2358
 3583SOL    HW114330   0.804   5.316   4.227  0.2487 -0.7838 -0.7027
 3583SOL    HW214331   0.736   5.206   4.307  0.8091 -0.0087  0.8917
 3583SOL     MW14332   0.809   5.246   4.279  0.6226 -0.3580 -0.1512
 3584SOL     OW14333   0.700   1.850   1.941 -0.2055  0.6466 -0.0171
 3584SOL    HW114334   0.623   1.905   1.956 -0.0651  0.6765  0.6493
 3584SOL    HW214335   0.679   1.767   1.985  0.8783  1.2994  1.8478
 3584SOL     MW14336   0.687   1.846   1.949 -0.0488  0.7340  0.3070
 3585SOL     OW14337   2.933   2.298   0.844  0.4745 -0.0593 -0.3829
 3585SOL    HW114338   2.970   2.322   0.929 -0.4747  3.1550 -0.7501
 3585SOL    HW214339   2.842   2.277   0.862  0.7348 -1.2818 -0.3971
 3585SOL     MW14340   2.926   2.299   0.857  0.3863  0.1957 -0.4317
 3586SOL     OW14341   2.412   5.365   4.046 -0.1652 -0.3914 -0.2961
 3586SOL    HW114342   2.399   5.293   3.986  0.1006 -0.1688 -0.6260
 3586SOL    HW214343   2.507   5.366   4.062 -0.2180 -0.3703  0.0220
 3586SOL     MW14344   2.423   5.356   4.041 -0.1379 -0.3602 -0.2976
 3587SOL     OW14345   1.835   3.149   4.267 -0.3569  0.6610  0.4673
 3587SOL    HW114346   1.782   3.098   4.329 -0.3571  1.4442  1.1298
 3587SOL    HW214347   1.922   3.110   4.273 -0.6656 -0.1214 -0.0349
 3587SOL     MW14348   1.840   3.138   4.276 -0.3965  0.6611  0.4878
 3588SOL     OW14349   5.068   1.058   0.356 -0.4195 -0.1502 -0.3106
 3588SOL    HW114350   5.019   1.067   0.274  1.0674 -1.2552 -1.3751
 3588SOL    HW214351   5.157   1.083   0.333 -0.2967  1.2442  1.4443
 3588SOL     MW14352   5.073   1.063   0.342 -0.2135 -0.1131 -0.2222
 3589SOL     OW14353   4.455   4.545   0.404 -0.3086 -0.7529  0.3081
 3589SOL    HW114354   4.538   4.514   0.440  0.0773 -0.5845 -0.4136
 3589SOL    HW214355   4.480   4.598   0.328 -1.1330 -2.1520 -1.0059
 3589SOL     MW14356   4.469   4.548   0.399 -0.3648 -0.9104  0.0475
 3590SOL     OW14357   4.079   3.374   0.740  0.6247  0.1162 -0.6375
 3590SOL    HW114358   4.131   3.298   0.767  0.1783 -0.1066 -0.4093
 3590SOL    HW214359   4.049   3.352   0.652  0.1032 -0.1765 -0.3893
 3590SOL     MW14360   4.082   3.362   0.733  0.5008  0.0502 -0.5765
 3591SOL     OW14361   5.302   1.684   1.234  0.7437  0.0264  0.2100
 3591SOL    HW114362   5.255   1.735   1.168  0.6322  1.8459  1.5834
 3591SOL    HW214363   5.384   1.732   1.247  0.2517  0.4410  2.1773
 3591SOL     MW14364   5.307   1.697   1.227  0.6665  0.3124  0.6376
 3592SOL     OW14365   0.663   3.867   1.223  0.8094 -0.2759 -0.1437
 3592SOL    HW114366   0.663   3.882   1.128  1.1913 -1.7120 -0.4081
 3592SOL    HW214367   0.629   3.948   1.260  1.4192  0.6282 -1.4519
 3592SOL     MW14368   0.659   3.879   1.215  0.9364 -0.3440 -0.3450
 3593SOL     OW14369   0.962   4.311   1.170  0.7571 -0.1954 -0.0631
 3593SOL    HW114370   0.999   4.270   1.248  0.8262 -0.1539 -0.0740
 3593SOL    HW214371   0.882   4.354   1.201  0.1030 -1.2317 -0.2471
 3593SOL     MW14372   0.956   4.311   1.184  0.6822 -0.3227 -0.0881
 3594SOL     OW14373   1.645   4.480   0.649 -0.3372  0.0464 -0.5386
 3594SOL    HW114374   1.570   4.425   0.674 -0.2517 -0.3187 -1.0818
 3594SOL    HW214375   1.722   4.427   0.672 -0.2337  0.5498  0.3151
 3594SOL     MW14376   1.645   4.466   0.655 -0.3130  0.0641 -0.4989
 3595SOL     OW14377   2.804   4.148   0.681 -0.8498 -0.8111 -0.1239
 3595SOL    HW114378   2.739   4.079   0.670 -1.3526 -0.1724 -1.2362
 3595SOL    HW214379   2.822   4.180   0.593 -1.4320  1.2097  0.4315
 3595SOL     MW14380   2.798   4.143   0.668 -0.9887 -0.4706 -0.1952
 3596SOL     OW14381   4.040   0.494   0.354 -0.8547 -0.0962 -0.3306
 3596SOL    HW114382   3.975   0.472   0.287 -0.5633  0.6658 -0.8776
 3596SOL    HW214383   4.117   0.441   0.330 -0.6329  0.4402 -0.8058
 3596SOL     MW14384   4.042   0.484   0.342 -0.7890  0.0700 -0.4614
 3597SOL     OW14385   3.609   0.620   2.991  0.7864  0.1077 -0.2290
 3597SOL    HW114386   3.573   0.564   2.922  0.2402  2.4400 -1.9762
 3597SOL    HW214387   3.702   0.598   2.994  0.2217 -2.4609  0.8195
 3597SOL     MW14388   3.617   0.610   2.983  0.6442  0.0774 -0.3185
 3598SOL     OW14389   1.720   3.525   1.217  0.0166 -0.4240  0.5488
 3598SOL    HW114390   1.765   3.451   1.259  2.5481 -0.3694 -1.8200
 3598SOL    HW214391   1.726   3.506   1.123  0.8754  2.8146 -0.1550
 3598SOL     MW14392   1.727   3.513   1.210  0.4506 -0.0025  0.1555
 3599SOL     OW14393   3.431   0.453   2.284  0.1865 -0.1546  0.4542
 3599SOL    HW114394   3.416   0.362   2.260  1.2439 -0.2680  0.1801
 3599SOL    HW214395   3.403   0.503   2.207  1.8370 -0.4090 -0.3513
 3599SOL     MW14396   3.426   0.448   2.271  0.5332 -0.2017  0.3160
 3600SOL     OW14397   0.802   3.841   3.907  0.1425  0.2240 -0.3411
 3600SOL    HW114398   0.755   3.878   3.982 -2.0981 -0.4687 -1.3055
 3600SOL    HW214399   0.762   3.883   3.831  1.8382  0.3382 -1.2159
 3600SOL     MW14400   0.791   3.851   3.907  0.0728  0.1500 -0.5765
 3601SOL     OW14401   2.877   0.339   1.948 -0.2673  0.1706 -0.2552
 3601SOL    HW114402   2.819   0.278   1.902 -1.6847 -0.3852  2.1017
 3601SOL    HW214403   2.860   0.423   1.908  0.0006 -0.5818 -2.0228
 3601SOL     MW14404   2.867   0.342   1.937 -0.4144  0.0031 -0.1798
 3602SOL     OW14405   1.448   2.029   4.354 -0.4300  0.0236 -0.3519
 3602SOL    HW114406   1.393   2.049   4.430 -0.0314  0.5232 -0.1930
 3602SOL    HW214407   1.428   2.098   4.291  1.2895  1.2671  0.3777
 3602SOL     MW14408   1.439   2.040   4.356 -0.1588  0.2468 -0.2382
 3603SOL     OW14409   2.374   2.925   1.757  0.0667  0.1611  0.6772
 3603SOL    HW114410   2.427   2.860   1.803 -0.8782 -1.0890  0.0600
 3603SOL    HW214411   2.424   2.944   1.678 -0.2545 -0.8254  0.2180
 3603SOL     MW14412   2.387   2.919   1.753 -0.0954 -0.1252  0.5394
 3604SOL     OW14413   4.948   2.365   0.197  0.0533 -0.2346 -0.0171
 3604SOL    HW114414   5.020   2.306   0.219  0.0124 -0.2978 -0.0509
 3604SOL    HW214415   4.912   2.329   0.116 -1.2697 -1.3493  1.0211
 3604SOL     MW14416   4.952   2.353   0.189 -0.1213 -0.3854  0.1114
 3605SOL     OW14417   0.323   5.016   0.931  0.4432  0.0613 -0.3275
 3605SOL    HW114418   0.333   5.104   0.896 -0.8798  0.5214  0.3908
 3605SOL    HW214419   0.235   4.990   0.905  0.1938 -0.3779  0.8966
 3605SOL     MW14420   0.313   5.024   0.923  0.2419  0.0640 -0.0788
 3606SOL     OW14421   3.702   2.089   2.075 -0.3464  0.0389 -0.3042
 3606SOL    HW114422   3.777   2.112   2.020 -1.0251 -0.6066 -1.5473
 3606SOL    HW214423   3.663   2.013   2.031 -1.6274  0.2604  0.4119
 3606SOL     MW14424   3.706   2.082   2.062 -0.5973 -0.0154 -0.3717
 3607SOL     OW14425   3.451   2.680   1.771  0.5413 -0.4388 -0.6066
 3607SOL    HW114426   3.412   2.722   1.848  1.5176  1.6796 -1.2054
 3607SOL    HW214427   3.379   2.630   1.733 -0.3189 -0.4211  0.9228
 3607SOL     MW14428   3.436   2.679   1.776  0.5562 -0.1654 -0.4875
 3608SOL     OW14429   4.333   1.351   4.945  0.6709  0.0002  0.4079
 3608SOL    HW114430   4.285   1.425   4.910 -1.2115 -0.6415  1.4750
 3608SOL    HW214431   4.267   1.284   4.961  2.0179 -1.2018  1.3074
 3608SOL     MW14432   4.319   1.352   4.943  0.6024 -0.2358  0.6596
 3609SOL     OW14433   4.938   1.317   2.125 -0.2319 -0.3777 -0.7213
 3609SOL    HW114434   4.913   1.324   2.218  2.4796  2.6223 -0.0689
 3609SOL    HW214435   4.867   1.362   2.078 -0.6568 -0.1810  0.0872
 3609SOL     MW14436   4.925   1.323   2.131  0.0608  0.0315 -0.5343
 3610SOL     OW14437   2.457   3.598   3.000  0.0314  0.3524  0.6661
 3610SOL    HW114438   2.532   3.636   3.046 -1.4806  4.2263  0.3199
 3610SOL    HW214439   2.385   3.658   3.018 -2.2863 -1.5840 -1.4071
 3610SOL     MW14440   2.457   3.610   3.008 -0.4588  0.6004  0.3564
 3611SOL     OW14441   1.001   4.147   0.135 -0.3585 -0.4508 -0.4909
 3611SOL    HW114442   1.089   4.117   0.158  0.4468 -0.0992 -2.7575
 3611SOL    HW214443   0.944   4.111   0.202  1.6345  0.2265  1.6824
 3611SOL     MW14444   1.005   4.138   0.146 -0.0003 -0.3191 -0.5029
 3612SOL     OW14445   1.668   3.802   0.029  0.2597 -0.0326  0.0125
 3612SOL    HW114446   1.660   3.827   0.121  1.0867 -0.2833  0.1635
 3612SOL    HW214447   1.755   3.835   0.004  0.5421 -1.0173 -0.3374
 3612SOL     MW14448   1.678   3.810   0.038  0.4017 -0.1907 -0.0129
 3613SOL     OW14449   3.909   4.730   1.506 -0.1476 -0.0951 -0.1536
 3613SOL    HW114450   3.888   4.776   1.587 -0.3865  0.1022 -0.3279
 3613SOL    HW214451   3.839   4.753   1.446 -0.3034 -0.7350 -0.2262
 3613SOL     MW14452   3.897   4.739   1.509 -0.1981 -0.1518 -0.1852
 3614SOL     OW14453   4.399   5.410   1.559 -0.7145 -0.2503  0.1404
 3614SOL    HW114454   4.409   5.386   1.651 -1.1024 -0.6610  0.0762
 3614SOL    HW214455   4.347   5.491   1.562 -1.0708 -0.4826  0.2623
 3614SOL     MW14456   4.394   5.418   1.572 -0.8098 -0.3326  0.1478
 3615SOL     OW14457   1.661   2.986   1.523 -0.0745 -0.5202 -0.3731
 3615SOL    HW114458   1.639   2.899   1.556 -4.0691 -0.1667 -1.5585
 3615SOL    HW214459   1.725   3.021   1.586 -1.7177 -2.6182  2.6784
 3615SOL     MW14460   1.667   2.980   1.536 -0.7962 -0.7435 -0.1342
 3616SOL     OW14461   2.488   4.832   2.775  0.2706  0.1617 -0.4240
 3616SOL    HW114462   2.528   4.778   2.843  0.6949  0.3309 -0.5356
 3616SOL    HW214463   2.527   4.800   2.693 -1.0773 -0.8251 -0.7363
 3616SOL     MW14464   2.498   4.821   2.773  0.1523  0.0571 -0.4783
 3617SOL     OW14465   0.333   4.392   0.599 -0.2073  0.0078  0.9300
 3617SOL    HW114466   0.338   4.307   0.555  0.3081  0.5087 -0.0145
 3617SOL    HW214467   0.362   4.375   0.689  0.9825 -0.6202  0.4525
 3617SOL     MW14468   0.338   4.379   0.605  0.0110 -0.0085  0.7480
 3618SOL     OW14469   4.922   1.868   2.700  0.0397 -0.3993  0.0844
 3618SOL    HW114470   4.991   1.934   2.690 -2.0856  1.7101 -1.8473
 3618SOL    HW214471   4.864   1.904   2.767 -2.5040  1.2179 -2.7188
 3618SOL     MW14472   4.923   1.881   2.707 -0.5580  0.0777 -0.5217
 3619SOL     OW14473   4.719   4.303   2.393  0.0354 -0.4692 -0.2834
 3619SOL    HW114474   4.648   4.366   2.386  0.0010 -0.2018  1.8641
 3619SOL    HW214475   4.695   4.248   2.468  0.0908 -3.0491 -2.0205
 3619SOL     MW14476   4.707   4.304   2.401  0.0381 -0.7653 -0.2308
 3620SOL     OW14477   0.494   4.642   2.277  0.4688  0.2248  0.4918
 3620SOL    HW114478   0.425   4.681   2.223  1.0421 -0.8956 -1.1173
 3620SOL    HW214479   0.545   4.717   2.309  0.5072  0.9193 -1.1014
 3620SOL     MW14480   0.492   4.657   2.274  0.5471  0.1703  0.0818
 3621SOL     OW14481   2.569   4.955   1.520 -0.0752 -0.0993 -0.4621
 3621SOL    HW114482   2.585   4.976   1.428 -0.3319 -0.5760 -0.6195
 3621SOL    HW214483   2.479   4.921   1.521 -0.7856  1.6952  0.2617
 3621SOL     MW14484   2.559   4.953   1.508 -0.1990  0.0694 -0.3896
 3622SOL     OW14485   3.019   4.076   1.057 -0.2596 -0.3032  0.4701
 3622SOL    HW114486   3.081   4.060   0.985  0.2816  0.0476  0.8468
 3622SOL    HW214487   2.962   4.000   1.057  0.4625 -0.8567  0.4036
 3622SOL     MW14488   3.020   4.064   1.048 -0.0979 -0.3292  0.5098
 3623SOL     OW14489   4.476   1.141   1.777 -0.0875 -0.3252  0.0410
 3623SOL    HW114490   4.499   1.048   1.784  1.6342  0.0721  0.1581
 3623SOL    HW214491   4.448   1.165   1.865  1.5457 -0.2498  0.5701
 3623SOL     MW14492   4.476   1.132   1.789  0.3420 -0.2647  0.1237
 3624SOL     OW14493   2.994   1.407   3.218 -0.1283  0.4794 -0.5756
 3624SOL    HW114494   3.081   1.379   3.247 -0.7714  0.0061  1.0451
 3624SOL    HW214495   2.944   1.325   3.215 -1.5755  1.0859  2.5522
 3624SOL     MW14496   2.999   1.393   3.222 -0.3959  0.4965  0.0323
 3625SOL     OW14497   1.555   5.316   2.490  0.0043  0.3727  0.3127
 3625SOL    HW114498   1.623   5.281   2.548 -1.4880 -1.9097  0.8083
 3625SOL    HW214499   1.585   5.294   2.402 -0.3257 -1.1963  0.5576
 3625SOL     MW14500   1.567   5.309   2.486 -0.2290 -0.1204  0.4075
 3626SOL     OW14501   3.880   0.174   5.286  0.6115 -0.2725 -0.1012
 3626SOL    HW114502   3.869   0.268   5.276 -2.1129 -0.6473 -1.7670
 3626SOL    HW214503   3.971   0.158   5.263  1.2229  1.9670  0.5389
 3626SOL     MW14504   3.890   0.184   5.282  0.3410 -0.0338 -0.2325
 3627SOL     OW14505   1.221   2.858   1.108 -0.0526 -0.4511  0.5591
 3627SOL    HW114506   1.244   2.921   1.177  1.0558 -1.6567  1.3535
 3627SOL    HW214507   1.138   2.821   1.137  1.2019 -2.1756  2.2426
 3627SOL     MW14508   1.213   2.861   1.121  0.2499 -0.8262  0.8763
 3628SOL     OW14509   2.552   1.065   5.171  0.7685 -0.3608  0.2372
 3628SOL    HW114510   2.569   1.023   5.086  2.4217 -1.1018  0.8736
 3628SOL    HW214511   2.640   1.082   5.207  0.1314  1.6976  0.9810
 3628SOL     MW14512   2.566   1.062   5.165  0.8985 -0.1922  0.4139
 3629SOL     OW14513   3.202   0.659   4.895 -0.0479  0.2169  0.1461
 3629SOL    HW114514   3.145   0.599   4.847 -1.5426  1.5634  0.1773
 3629SOL    HW214515   3.284   0.658   4.845 -1.0258  0.3783 -1.5524
 3629SOL     MW14516   3.206   0.651   4.882 -0.3644  0.4099 -0.0673
 3630SOL     OW14517   1.705   2.302   5.394 -0.1275 -0.2646 -0.0666
 3630SOL    HW114518   1.781   2.276   5.446  0.1581 -0.7753 -0.7288
 3630SOL    HW214519   1.714   2.254   5.312 -1.5618 -0.9082  0.1296
 3630SOL     MW14520   1.716   2.293   5.390 -0.2746 -0.4123 -0.1262
 3631SOL     OW14521   4.180   2.846   3.704  0.6968  0.1386  0.4275
 3631SOL    HW114522   4.232   2.819   3.780  1.2060 -0.7889 -0.2285
 3631SOL    HW214523   4.108   2.782   3.700 -0.5661  1.4434  1.3619
 3631SOL     MW14524   4.177   2.834   3.713  0.6003  0.1869  0.4632
 3632SOL     OW14525   3.641   0.262   2.417 -0.6565  0.0142 -0.1160
 3632SOL    HW114526   3.592   0.181   2.402 -0.4826  0.2386 -2.0313
 3632SOL    HW214527   3.667   0.291   2.330 -1.0055  2.3311  0.5036
 3632SOL     MW14528   3.638   0.255   2.404 -0.6789  0.3395 -0.2819
 3633SOL     OW14529   0.663   2.218   3.554  0.0920 -0.8192  0.1380
 3633SOL    HW114530   0.590   2.277   3.537  0.4136 -0.6737 -0.8203
 3633SOL    HW214531   0.671   2.165   3.474  1.6728 -0.1199 -0.2173
 3633SOL     MW14532   0.655   2.219   3.542  0.3355 -0.7110 -0.0301
 3634SOL     OW14533   1.405   3.278   3.585 -0.1150  0.3853  0.2717
 3634SOL    HW114534   1.499   3.267   3.570 -0.3196 -1.5634  0.1298
 3634SOL    HW214535   1.398   3.292   3.680  0.2238 -1.4284  0.6023
 3634SOL     MW14536   1.416   3.279   3.595 -0.0978 -0.0963  0.2959
 3635SOL     OW14537   3.476   0.463   4.773  0.2241  0.2056 -0.0950
 3635SOL    HW114538   3.440   0.391   4.721  0.6186  0.7492 -1.1537
 3635SOL    HW214539   3.565   0.436   4.794  0.3942  0.4098 -0.5486
 3635SOL     MW14540   3.482   0.450   4.769  0.2964  0.3013 -0.2886
 3636SOL     OW14541   5.288   2.982   4.718 -1.0428 -0.2209  0.5766
 3636SOL    HW114542   5.225   2.912   4.701 -1.0974 -0.3180  1.1553
 3636SOL    HW214543   5.370   2.950   4.681 -1.3163 -0.1147 -0.1361
 3636SOL     MW14544   5.291   2.969   4.711 -1.0848 -0.2198  0.5595
 3637SOL     OW14545   4.652   3.155   1.013  0.0905 -0.4380 -0.3116
 3637SOL    HW114546   4.568   3.196   0.993 -0.6174 -1.7309 -0.0623
 3637SOL    HW214547   4.710   3.182   0.941 -0.7160 -0.0867 -0.8425
 3637SOL     MW14548   4.649   3.164   1.001 -0.1034 -0.5586 -0.3476
 3638SOL     OW14549   2.237   1.587   4.910  0.0417  0.2348 -0.1069
 3638SOL    HW114550   2.248   1.625   4.822 -1.5073 -1.1115 -0.9489
 3638SOL    HW214551   2.190   1.654   4.959  0.4796  0.8070 -0.4507
 3638SOL     MW14552   2.232   1.600   4.905 -0.1005  0.1358 -0.2587
 3639SOL     OW14553   0.975   3.238   5.430  0.3947  0.0427  0.2515
 3639SOL    HW114554   1.060   3.219   5.469  0.3430  0.3626  0.5268
 3639SOL    HW214555   0.961   3.331   5.447  0.4479  0.2315 -0.6985
 3639SOL     MW14556   0.984   3.248   5.437  0.3949  0.1078  0.1652
 3640SOL     OW14557   2.485   5.234   1.483  0.4844  0.1415  0.0294
 3640SOL    HW114558   2.545   5.300   1.450  0.5114 -0.4927 -1.2514
 3640SOL    HW214559   2.433   5.209   1.407 -0.9625  0.1956  0.9560
 3640SOL     MW14560   2.486   5.239   1.469  0.3026  0.0672 -0.0160
 3641SOL     OW14561   3.836   2.275   0.241  0.1149 -0.9286 -0.0714
 3641SOL    HW114562   3.808   2.363   0.267  0.5017 -1.0678  0.8429
 3641SOL    HW214563   3.808   2.267   0.150  0.1543  0.1775 -0.1922
 3641SOL     MW14564   3.829   2.285   0.233  0.1694 -0.8048  0.0302
 3642SOL     OW14565   2.194   2.726   4.018 -0.3041 -0.1983 -0.3844
 3642SOL    HW114566   2.196   2.699   4.110  0.0486  1.4153  0.1239
 3642SOL    HW214567   2.134   2.801   4.017  2.0757  1.8488 -0.8060
 3642SOL     MW14568   2.187   2.732   4.030  0.0457  0.2703 -0.3733
 3643SOL     OW14569   1.392   1.273   2.242 -0.4836 -0.3767 -0.0863
 3643SOL    HW114570   1.352   1.360   2.246  0.8573  0.2587  0.2428
 3643SOL    HW214571   1.466   1.278   2.303 -0.2047 -1.6516 -0.2947
 3643SOL     MW14572   1.396   1.285   2.250 -0.2762 -0.4586 -0.0708
 3644SOL     OW14573   2.463   3.972   2.961 -0.0705 -0.1718  0.2470
 3644SOL    HW114574   2.491   3.918   2.887  3.3410  1.4449  0.1471
 3644SOL    HW214575   2.418   4.046   2.920 -1.3820 -1.0314  0.1017
 3644SOL     MW14576   2.461   3.975   2.946  0.1984 -0.0749  0.2156
 3645SOL     OW14577   0.722   1.906   0.050  0.1369  0.2507  0.4764
 3645SOL    HW114578   0.764   1.981   0.092 -1.7575  1.9975 -0.5444
 3645SOL    HW214579   0.654   1.879   0.111 -0.2371  0.4364  0.1500
 3645SOL     MW14580   0.719   1.912   0.063 -0.1535  0.4981  0.3039
 3646SOL     OW14581   4.244   4.149   4.250  0.7335  0.6704  0.1973
 3646SOL    HW114582   4.186   4.152   4.174  0.4362  0.0692  0.3982
 3646SOL    HW214583   4.187   4.171   4.324  0.0340 -2.6709  0.8087
 3646SOL     MW14584   4.229   4.153   4.250  0.6059  0.1657  0.3013
 3647SOL     OW14585   3.113   2.370   1.378  0.0341  0.3136  0.1442
 3647SOL    HW114586   3.052   2.387   1.307 -0.6807 -0.2101  0.6168
 3647SOL    HW214587   3.067   2.307   1.434  0.2704  1.2727  1.4642
 3647SOL     MW14588   3.099   2.364   1.376 -0.0272  0.3693  0.3737
 3648SOL     OW14589   0.358   4.855   4.714  0.0563  0.4551  0.2312
 3648SOL    HW114590   0.326   4.939   4.747 -2.0876 -0.7782  1.5502
 3648SOL    HW214591   0.423   4.828   4.778 -1.8002 -0.4392  1.8647
 3648SOL     MW14592   0.362   4.862   4.726 -0.4558  0.1828  0.6092
 3649SOL     OW14593   1.229   3.058   2.897  0.1617  0.2482 -0.2336
 3649SOL    HW114594   1.319   3.080   2.875 -0.1232  0.8968 -0.7839
 3649SOL    HW214595   1.224   2.963   2.885  1.0912  0.0142  1.0167
 3649SOL     MW14596   1.240   3.049   2.892  0.2442  0.3012 -0.1440
 3650SOL     OW14597   4.126   1.794   4.444 -0.1366 -0.3702  0.0212
 3650SOL    HW114598   4.214   1.830   4.450  0.0053 -0.7386  0.1600
 3650SOL    HW214599   4.074   1.844   4.507 -0.2731  0.5703 -0.8266
 3650SOL     MW14600   4.131   1.805   4.453 -0.1359 -0.2970 -0.0696
 3651SOL     OW14601   0.592   1.911   4.493 -0.0793  0.0437  0.3699
 3651SOL    HW114602   0.556   1.904   4.404  1.3941  0.4254 -0.2914
 3651SOL    HW214603   0.522   1.881   4.550 -0.9549 -0.4934 -0.9494
 3651SOL     MW14604   0.579   1.906   4.489 -0.0028  0.0238  0.1163
 3652SOL     OW14605   5.448   2.198   1.055 -0.2033  0.9517  0.2476
 3652SOL    HW114606   5.456   2.143   0.977 -0.4390  1.2416  0.0164
 3652SOL    HW214607   5.496   2.278   1.034  1.1646  0.3691  1.0366
 3652SOL     MW14608   5.455   2.201   1.043 -0.0584  0.9142  0.3190
 3653SOL     OW14609   0.061   2.081   1.344 -0.6673  0.0096  0.3162
 3653SOL    HW114610   0.041   2.127   1.263  0.7088  0.3316  0.1447
 3653SOL    HW214611   0.039   1.990   1.326 -2.9227  0.4621  0.4859
 3653SOL     MW14612   0.056   2.075   1.332 -0.7799  0.1088  0.3160
 3654SOL     OW14613   5.147   0.629   4.807  0.0824 -0.1551 -0.2515
 3654SOL    HW114614   5.108   0.544   4.788  1.3674 -1.3749  2.1857
 3654SOL    HW214615   5.072   0.685   4.828 -0.7710 -0.6566 -1.8156
 3654SOL     MW14616   5.132   0.626   4.807  0.1377 -0.3754 -0.1397
 3655SOL     OW14617   3.632   2.841   1.629  0.2814 -0.8327  0.0259
 3655SOL    HW114618   3.712   2.840   1.682 -0.1710  0.9322  0.7803
 3655SOL    HW214619   3.567   2.797   1.683  0.0921  0.0221  0.5007
 3655SOL     MW14620   3.634   2.835   1.643  0.1993 -0.4973  0.1832
 3656SOL     OW14621   0.508   1.400   0.253  0.1002 -0.1449 -0.1136
 3656SOL    HW114622   0.595   1.428   0.222  0.6797 -2.8138 -1.1783
 3656SOL    HW214623   0.446   1.449   0.199  0.9818  0.3196 -0.7300
 3656SOL     MW14624   0.512   1.410   0.242  0.2872 -0.4271 -0.3288
 3657SOL     OW14625   2.475   5.050   4.860 -0.0947  0.6473  0.1054
 3657SOL    HW114626   2.488   5.006   4.776 -1.6381  1.5578 -0.6573
 3657SOL    HW214627   2.560   5.048   4.902  0.8286  0.5743 -1.6882
 3657SOL     MW14628   2.487   5.044   4.855 -0.1741  0.7545 -0.2218
 3658SOL     OW14629   1.764   0.861   0.124  0.3148  0.0598 -0.3256
 3658SOL    HW114630   1.704   0.923   0.167 -0.0523  0.4066 -1.3084
 3658SOL    HW214631   1.706   0.802   0.076  0.6093 -1.5383  1.1658
 3658SOL     MW14632   1.749   0.861   0.123  0.3055 -0.1004 -0.2605
 3659SOL     OW14633   0.113   3.843   1.785  0.0350 -0.3243  0.3147
 3659SOL    HW114634   0.136   3.796   1.705 -2.7354 -1.4025  0.0297
 3659SOL    HW214635   0.155   3.793   1.855  0.5393 -0.7790 -0.2996
 3659SOL     MW14636   0.121   3.831   1.783 -0.2551 -0.5205  0.1996
 3660SOL     OW14637   1.366   2.545   4.307  0.7937 -0.1017 -0.0356
 3660SOL    HW114638   1.351   2.501   4.390 -1.3468  0.7680  0.0951
 3660SOL    HW214639   1.302   2.616   4.305 -0.2017 -0.9399 -3.0172
 3660SOL     MW14640   1.356   2.548   4.317  0.3923 -0.0977 -0.4005
 3661SOL     OW14641   3.134   2.849   3.354 -0.1019  0.1526 -0.0055
 3661SOL    HW114642   3.101   2.788   3.288 -1.0652  1.3528 -0.6994
 3661SOL    HW214643   3.223   2.870   3.326 -0.3842  0.3876 -0.7560
 3661SOL     MW14644   3.141   2.844   3.342 -0.2613  0.3364 -0.1904
 3662SOL     OW14645   3.961   0.530   3.580 -0.2036 -0.3966 -0.4622
 3662SOL    HW114646   3.917   0.614   3.583  1.0312  0.2838 -0.7865
 3662SOL    HW214647   4.042   0.546   3.533  0.0935 -1.7545 -0.4748
 3662SOL     MW14648   3.966   0.543   3.574 -0.0075 -0.4833 -0.5053
 3663SOL     OW14649   4.119   1.295   1.389 -0.0827 -0.1708 -0.1372
 3663SOL    HW114650   4.186   1.317   1.324 -0.1565  0.7075  0.0825
 3663SOL    HW214651   4.168   1.262   1.464 -0.0396 -2.4987 -1.0832
 3663SOL     MW14652   4.134   1.293   1.390 -0.0866 -0.3564 -0.2302
 3664SOL     OW14653   1.961   4.484   3.342 -0.3302 -0.0861 -0.0040
 3664SOL    HW114654   1.908   4.523   3.411  0.4542 -0.7345  1.0093
 3664SOL    HW214655   1.954   4.390   3.357  0.7701 -0.1964 -0.0758
 3664SOL     MW14656   1.953   4.477   3.353 -0.0890 -0.1832  0.1165
 3665SOL     OW14657   1.493   4.226   2.562  0.5565  0.3441  0.2615
 3665SOL    HW114658   1.450   4.289   2.620 -1.2013 -0.6872  0.1407
 3665SOL    HW214659   1.444   4.145   2.574  2.2550 -0.8032 -0.2049
 3665SOL     MW14660   1.482   4.224   2.571  0.5489  0.0652  0.1863
 3666SOL     OW14661   3.097   1.633   3.615 -0.0900 -0.1715 -0.0815
 3666SOL    HW114662   3.066   1.696   3.680  0.2013  1.0785 -1.1242
 3666SOL    HW214663   3.118   1.555   3.666 -1.3140  0.2467  1.1304
 3666SOL     MW14664   3.096   1.631   3.630 -0.2094  0.0420 -0.0598
 3667SOL     OW14665   0.739   2.157   2.036 -0.0607 -0.5258 -0.3274
 3667SOL    HW114666   0.816   2.197   1.995 -1.3929  0.4904 -1.9718
 3667SOL    HW214667   0.693   2.230   2.078 -0.4640 -1.0205  0.1068
 3667SOL     MW14668   0.743   2.171   2.036 -0.2829 -0.4590 -0.4823
 3668SOL     OW14669   2.422   0.484   4.703 -0.1424  0.6473 -0.3303
 3668SOL    HW114670   2.508   0.523   4.683  0.5106 -0.9335 -0.8022
 3668SOL    HW214671   2.361   0.531   4.647  0.3187  2.1208  0.3510
 3668SOL     MW14672   2.425   0.495   4.693  0.0003  0.6336 -0.3035
 3669SOL     OW14673   4.510   3.680   5.185 -0.1252 -0.0590  0.0617
 3669SOL    HW114674   4.474   3.669   5.273 -0.4757 -1.0756 -0.1917
 3669SOL    HW214675   4.604   3.668   5.197 -0.2411 -0.9273  0.2034
 3669SOL     MW14676   4.517   3.677   5.198 -0.1849 -0.3003  0.0474
 3670SOL     OW14677   4.194   1.340   4.204 -0.1209 -0.6096  0.3957
 3670SOL    HW114678   4.105   1.356   4.238  0.2746  0.1360  1.1309
 3670SOL    HW214679   4.206   1.246   4.213 -1.5340 -1.0361 -1.5069
 3670SOL     MW14680   4.184   1.330   4.210 -0.2511 -0.5687  0.2462
 3671SOL     OW14681   4.763   3.764   1.926  0.4023  0.4004 -0.4020
 3671SOL    HW114682   4.791   3.777   1.835  2.7011  2.0458  0.4368
 3671SOL    HW214683   4.813   3.688   1.956  0.8628  0.8199 -0.0857
 3671SOL     MW14684   4.773   3.756   1.918  0.7555  0.6647 -0.2541
 3672SOL     OW14685   2.563   2.763   1.873 -0.1567  0.2484  0.5968
 3672SOL    HW114686   2.498   2.700   1.905  0.8785 -0.6876  0.9293
 3672SOL    HW214687   2.574   2.825   1.945 -2.1108  1.6033 -0.2014
 3672SOL     MW14688   2.556   2.763   1.886 -0.2743  0.3021  0.5372
 3673SOL     OW14689   2.103   3.731   3.687 -0.0966  0.4605 -0.0880
 3673SOL    HW114690   2.163   3.796   3.724 -0.2194  1.2698 -1.2359
 3673SOL    HW214691   2.089   3.761   3.597 -1.3521 -0.3300 -0.1735
 3673SOL     MW14692   2.109   3.743   3.681 -0.2730  0.4629 -0.2459
 3674SOL     OW14693   3.907   3.533   2.396  0.2548  0.1913  0.1088
 3674SOL    HW114694   3.908   3.458   2.337 -0.0429  0.7740 -0.6665
 3674SOL    HW214695   3.879   3.606   2.341 -0.6315  0.6465  1.1125
 3674SOL     MW14696   3.903   3.533   2.381  0.1032  0.3242  0.1380
 3675SOL     OW14697   1.714   1.545   5.365 -0.0087  0.4476  0.2153
 3675SOL    HW114698   1.640   1.499   5.326  1.2504 -1.7495  0.3098
 3675SOL    HW214699   1.675   1.594   5.438 -1.1549 -2.1331  1.4626
 3675SOL     MW14700   1.699   1.546   5.369  0.0057 -0.1641  0.3871
 3676SOL     OW14701   1.293   3.791   1.402  0.1779 -0.7341 -0.3560
 3676SOL    HW114702   1.295   3.866   1.343 -0.2190  0.6814  1.3256
 3676SOL    HW214703   1.382   3.788   1.439  1.1019 -2.9322 -2.4747
 3676SOL     MW14704   1.305   3.800   1.399  0.2454 -0.8343 -0.4120
 3677SOL     OW14705   4.238   2.747   1.119 -0.1451  0.0083 -0.1448
 3677SOL    HW114706   4.270   2.837   1.114 -1.1040  0.3415 -0.5136
 3677SOL    HW214707   4.176   2.747   1.191 -0.3211 -0.3041 -0.2930
 3677SOL     MW14708   4.235   2.759   1.127 -0.2904  0.0110 -0.2110
 3678SOL     OW14709   2.267   5.436   2.571  0.0638  0.7743 -0.5593
 3678SOL    HW114710   2.346   5.394   2.537 -0.2579 -1.0476  0.8123
 3678SOL    HW214711   2.290   5.461   2.660 -0.8019  0.5218 -0.2617
 3678SOL     MW14712   2.280   5.434   2.578 -0.0882  0.5088 -0.3456
 3679SOL     OW14713   5.053   0.285   3.039  0.3417 -0.0034  0.2113
 3679SOL    HW114714   5.064   0.264   2.946  2.4812 -0.1125  0.4452
 3679SOL    HW214715   4.972   0.240   3.064  0.1503 -0.6203 -1.3878
 3679SOL     MW14716   5.044   0.277   3.030  0.5911 -0.0963  0.0366
 3680SOL     OW14717   0.785   5.391   2.313 -0.4536 -0.5435  0.3326
 3680SOL    HW114718   0.842   5.351   2.378 -0.2489 -0.5912  0.1258
 3680SOL    HW214719   0.777   5.483   2.341 -0.2147 -0.5196  0.3187
 3680SOL     MW14720   0.791   5.398   2.325 -0.3968 -0.5466  0.3044
 3681SOL     OW14721   1.974   4.307   0.593 -0.4079 -0.2725  0.1076
 3681SOL    HW114722   1.937   4.278   0.676 -1.0088  0.2215  0.0166
 3681SOL    HW214723   1.916   4.268   0.527 -0.9577  0.7506 -0.0272
 3681SOL     MW14724   1.962   4.298   0.595 -0.5552 -0.0783  0.0787
 3682SOL     OW14725   3.450   2.782   5.320  0.1150  0.1661  1.1607
 3682SOL    HW114726   3.361   2.796   5.352 -0.9720 -1.3298 -1.0168
 3682SOL    HW214727   3.472   2.863   5.273 -0.9585 -0.2487 -0.1042
 3682SOL     MW14728   3.442   2.795   5.318 -0.1616 -0.0785  0.7200
 3683SOL     OW14729   3.889   5.402   4.162 -0.7785 -0.4213 -0.4769
 3683SOL    HW114730   3.886   5.497   4.171 -1.8745 -0.6426  2.8044
 3683SOL    HW214731   3.979   5.379   4.184 -0.5768 -0.1726 -1.0311
 3683SOL     MW14732   3.900   5.411   4.166 -0.8930 -0.4178 -0.1278
 3684SOL     OW14733   5.006   5.356   0.251 -0.0668 -0.4300  0.2422
 3684SOL    HW114734   4.989   5.276   0.301 -0.3130 -0.8397 -0.4891
 3684SOL    HW214735   5.079   5.333   0.194 -0.8451 -0.4843 -0.7548
 3684SOL     MW14736   5.013   5.343   0.250 -0.1980 -0.4894  0.0210
 3685SOL     OW14737   1.758   1.554   3.882  0.0511  0.4672 -0.3007
 3685SOL    HW114738   1.833   1.534   3.825 -0.8319 -0.5091 -1.1717
 3685SOL    HW214739   1.797   1.588   3.962  1.3895  0.8002 -1.0638
 3685SOL     MW14740   1.773   1.556   3.885  0.1094  0.3848 -0.5099
 3686SOL     OW14741   5.364   2.352   4.513  0.6019 -0.0209 -0.1983
 3686SOL    HW114742   5.398   2.263   4.524 -0.8277 -0.3917  1.8524
 3686SOL    HW214743   5.271   2.341   4.498  0.5757  1.1100 -0.9644
 3686SOL     MW14744   5.357   2.339   4.513  0.4155  0.0764 -0.0338
 3687SOL     OW14745   0.694   1.590   0.067  0.1642  0.1013 -0.1687
 3687SOL    HW114746   0.730   1.673   0.097  0.9988 -0.7311  1.2817
 3687SOL    HW214747   0.632   1.613  -0.002  0.7928  1.8642 -0.1777
 3687SOL     MW14748   0.690   1.604   0.062  0.3515  0.2204  0.0158
 3688SOL     OW14749   1.101   2.554   3.970 -0.2226 -0.3378 -0.4823
 3688SOL    HW114750   1.195   2.538   3.981  0.3339  0.3510 -3.4821
 3688SOL    HW214751   1.060   2.503   4.040  2.2891 -2.2140 -0.2354
 3688SOL     MW14752   1.108   2.545   3.980  0.1702 -0.4898 -0.8347
 3689SOL     OW14753   1.317   5.259   0.843  0.1824  0.2767  0.1346
 3689SOL    HW114754   1.232   5.216   0.841  0.3929 -0.1348 -0.0893
 3689SOL    HW214755   1.373   5.199   0.893  0.4129  0.4120  0.0411
 3689SOL     MW14756   1.313   5.246   0.849  0.2389  0.2413  0.0940
 3690SOL     OW14757   5.278   4.669   2.053  0.0215 -0.0593 -0.1507
 3690SOL    HW114758   5.342   4.661   1.983  0.7752  2.7281  0.1063
 3690SOL    HW214759   5.313   4.614   2.123  1.8749  0.9302 -0.2296
 3690SOL     MW14760   5.291   4.661   2.053  0.3552  0.4242 -0.1279
 3691SOL     OW14761   3.845   0.450   5.254 -0.5923  0.2582 -0.1657
 3691SOL    HW114762   3.919   0.509   5.265 -0.9649  1.1077 -1.7905
 3691SOL    HW214763   3.813   0.468   5.165  0.1487 -3.3634 -1.3579
 3691SOL     MW14764   3.851   0.460   5.244 -0.5451 -0.0967 -0.5263
 3692SOL     OW14765   5.108   1.580   1.818 -0.1015  0.1119  0.1852
 3692SOL    HW114766   5.038   1.518   1.800 -0.2682  0.3711 -0.0592
 3692SOL    HW214767   5.170   1.531   1.872  0.2518 -0.5805 -0.8326
 3692SOL     MW14768   5.107   1.566   1.823 -0.0776  0.0564  0.0236
 3693SOL     OW14769   0.542   3.061   4.193  0.0448 -1.2064  0.0205
 3693SOL    HW114770   0.517   2.969   4.183 -0.9139 -0.7988 -1.9279
 3693SOL    HW214771   0.470   3.100   4.241  0.3222 -1.4060  0.6069
 3693SOL     MW14772   0.530   3.054   4.198 -0.0424 -1.1797 -0.1539
 3694SOL     OW14773   2.197   5.400   1.099  0.3164 -0.1066  0.3751
 3694SOL    HW114774   2.106   5.393   1.071 -0.1618  0.2595  1.7747
 3694SOL    HW214775   2.203   5.347   1.178  1.2212  0.1881  0.5197
 3694SOL     MW14776   2.186   5.393   1.105  0.3710 -0.0220  0.5727
 3695SOL     OW14777   2.549   0.397   0.131  0.5109 -0.1809 -0.3093
 3695SOL    HW114778   2.638   0.362   0.130  0.0542 -1.5574  1.7142
 3695SOL    HW214779   2.497   0.329   0.173 -1.3171  1.0417 -0.4857
 3695SOL     MW14780   2.554   0.384   0.136  0.2184 -0.2006 -0.0729
 3696SOL     OW14781   1.841   0.361   1.824 -0.3428 -0.3106  0.2207
 3696SOL    HW114782   1.881   0.320   1.748 -0.0050  0.0208  0.2191
 3696SOL    HW214783   1.754   0.389   1.794  0.0619  0.4616 -0.2470
 3696SOL     MW14784   1.835   0.360   1.811 -0.2477 -0.1693  0.1606
 3697SOL     OW14785   0.212   0.365   2.735  0.1736  0.3259  0.1038
 3697SOL    HW114786   0.240   0.273   2.730  2.3458  0.8974  0.9365
 3697SOL    HW214787   0.274   0.412   2.680 -1.2097  1.2951 -0.6952
 3697SOL     MW14788   0.223   0.359   2.727  0.2746  0.5231  0.1081
 3698SOL     OW14789   5.178   3.418   3.663 -0.3218  0.2980  0.0720
 3698SOL    HW114790   5.146   3.405   3.752 -0.6108  0.6494  0.0223
 3698SOL    HW214791   5.105   3.461   3.618  0.5341  1.9393  0.1840
 3698SOL     MW14792   5.165   3.422   3.669 -0.2493  0.5531  0.0800
 3699SOL     OW14793   2.710   3.918   2.279 -0.1297 -0.2167 -0.3036
 3699SOL    HW114794   2.766   3.842   2.263 -0.8680 -0.3078 -3.0390
 3699SOL    HW214795   2.769   3.994   2.272 -0.0815 -0.3726 -1.9050
 3699SOL     MW14796   2.725   3.918   2.276 -0.2181 -0.2483 -0.8587
 3700SOL     OW14797   2.497   3.808   2.742 -0.3118 -0.4759 -0.2032
 3700SOL    HW114798   2.530   3.845   2.660  0.6111 -0.8471 -0.0108
 3700SOL    HW214799   2.484   3.715   2.723 -1.1553 -0.3603 -0.2382
 3700SOL     MW14800   2.499   3.801   2.729 -0.3017 -0.5086 -0.1830
 3701SOL     OW14801   0.057   2.896   3.206 -0.0634 -0.6523  0.4023
 3701SOL    HW114802   0.075   2.833   3.136  0.7311 -0.4650  0.4264
 3701SOL    HW214803   0.104   2.861   3.282  0.5556  0.0709  0.3584
 3701SOL     MW14804   0.065   2.883   3.207  0.1175 -0.5357  0.3998
 3702SOL     OW14805   2.231   4.017   2.504  0.1486  0.0698 -0.4743
 3702SOL    HW114806   2.157   4.003   2.444 -0.2578  1.3615 -0.3041
 3702SOL    HW214807   2.205   4.092   2.557  0.8567 -0.5472  0.7799
 3702SOL     MW14808   2.218   4.024   2.503  0.1872  0.1562 -0.2919
 3703SOL     OW14809   5.000   0.597   4.222  0.0097 -0.4064  0.2824
 3703SOL    HW114810   5.029   0.684   4.195 -0.4432 -0.6942 -1.2431
 3703SOL    HW214811   4.909   0.609   4.248  0.4049 -0.1563  1.6786
 3703SOL     MW14812   4.992   0.610   4.222  0.0024 -0.4112  0.2658
 3704SOL     OW14813   1.579   0.970   0.961 -0.0078 -0.1128  0.0231
 3704SOL    HW114814   1.612   1.046   1.007 -0.2191  0.9072 -1.4382
 3704SOL    HW214815   1.596   0.896   1.020  0.9059  0.9482  1.1258
 3704SOL     MW14816   1.585   0.970   0.974  0.0821  0.1536 -0.0228
 3705SOL     OW14817   0.122   5.090   3.483 -0.0219  0.2135 -0.6104
 3705SOL    HW114818   0.195   5.049   3.530  0.8974  0.2425 -1.9601
 3705SOL    HW214819   0.157   5.172   3.450 -0.7266  0.3217 -1.1158
 3705SOL     MW14820   0.136   5.095   3.485  0.0056  0.2311 -0.8478
 3706SOL     OW14821   1.098   4.309   2.749 -0.2526  0.2251 -0.4554
 3706SOL    HW114822   1.183   4.351   2.736 -0.4553  0.6467 -0.4359
 3706SOL    HW214823   1.056   4.311   2.663  0.5181 -1.7147 -0.9337
 3706SOL     MW14824   1.104   4.314   2.737 -0.1799  0.0308 -0.5141
 3707SOL     OW14825   1.737   0.864   3.659 -1.0812 -0.1011 -0.3623
 3707SOL    HW114826   1.737   0.921   3.582 -1.2817 -0.6886 -0.8092
 3707SOL    HW214827   1.713   0.778   3.625 -0.0811 -0.6203  0.1715
 3707SOL     MW14828   1.734   0.860   3.645 -0.9788 -0.2427 -0.3512
 3708SOL     OW14829   3.162   4.372   2.806 -0.2624 -0.3467 -0.0312
 3708SOL    HW114830   3.100   4.426   2.757 -0.9749 -1.6676 -0.6607
 3708SOL    HW214831   3.217   4.434   2.853 -2.1832  0.8770  0.7120
 3708SOL     MW14832   3.161   4.387   2.806 -0.5995 -0.3591 -0.0166
 3709SOL     OW14833   1.019   1.586   3.599 -0.2035 -0.3440  0.2588
 3709SOL    HW114834   1.012   1.654   3.666 -0.7732 -0.2691  0.1281
 3709SOL    HW214835   1.112   1.565   3.596 -0.0513  0.2796  0.4481
 3709SOL     MW14836   1.030   1.592   3.608 -0.2569 -0.2546  0.2663
 3710SOL     OW14837   3.866   2.608   4.223 -0.2561 -0.0228  0.3276
 3710SOL    HW114838   3.777   2.595   4.254 -0.4575 -0.3120 -0.3746
 3710SOL    HW214839   3.921   2.574   4.294 -0.7277 -1.9482 -0.1863
 3710SOL     MW14840   3.862   2.602   4.236 -0.3422 -0.3063  0.1719
 3711SOL     OW14841   2.091   0.761   0.497  0.0944  0.5253  0.1118
 3711SOL    HW114842   2.185   0.777   0.492 -0.0483  1.0248 -1.3992
 3711SOL    HW214843   2.057   0.789   0.412 -1.5838  1.4230  1.0215
 3711SOL     MW14844   2.099   0.767   0.486 -0.1387  0.7042  0.0349
 3712SOL     OW14845   0.944   3.815   2.764 -0.1201  0.6070 -0.1161
 3712SOL    HW114846   1.034   3.814   2.731 -0.4232 -0.0149 -0.9521
 3712SOL    HW214847   0.950   3.861   2.848  1.1020 -0.1258  0.2235
 3712SOL     MW14848   0.956   3.821   2.771 -0.0024  0.4336 -0.1796
 3713SOL     OW14849   3.636   3.001   1.962 -0.4154 -0.1606  0.5086
 3713SOL    HW114850   3.711   3.045   2.002 -0.9137  0.6977  0.5025
 3713SOL    HW214851   3.665   2.984   1.872 -0.1754  0.0365  0.5460
 3713SOL     MW14852   3.650   3.004   1.955 -0.4485 -0.0255  0.5126
 3714SOL     OW14853   2.222   5.366   1.579 -0.0186 -0.3071 -0.2753
 3714SOL    HW114854   2.305   5.363   1.531 -0.4208 -1.3079 -0.9306
 3714SOL    HW214855   2.205   5.460   1.591 -0.5873  0.0717 -3.3178
 3714SOL     MW14856   2.231   5.378   1.574 -0.1429 -0.3867 -0.7487
 3715SOL     OW14857   3.971   1.762   3.809  0.2005  0.2561  0.4460
 3715SOL    HW114858   3.956   1.717   3.892 -1.1279  0.2970  0.2358
 3715SOL    HW214859   3.931   1.705   3.743 -1.8203  1.8485  0.2020
 3715SOL     MW14860   3.964   1.749   3.811 -0.2282  0.4652  0.3879
 3716SOL     OW14861   1.491   0.101   2.800 -0.2952  0.4204 -0.0097
 3716SOL    HW114862   1.444   0.142   2.873  0.0812 -1.1873  1.2053
 3716SOL    HW214863   1.570   0.155   2.789 -0.0245  0.3155  1.2518
 3716SOL     MW14864   1.495   0.113   2.808 -0.2124  0.2012  0.3073
 3717SOL     OW14865   0.680   4.176   1.810  0.2950  0.0392  0.1422
 3717SOL    HW114866   0.596   4.131   1.798 -0.2410  1.0125  0.1234
 3717SOL    HW214867   0.743   4.105   1.823 -0.8312 -0.6715  2.1748
 3717SOL     MW14868   0.677   4.161   1.810  0.0822  0.0728  0.4000
 3718SOL     OW14869   4.867   3.456   1.222 -0.3770 -0.2301  0.0637
 3718SOL    HW114870   4.854   3.457   1.317 -0.3926  1.0140  0.0584
 3718SOL    HW214871   4.950   3.410   1.210 -1.3009 -2.1173  0.5347
 3718SOL     MW14872   4.876   3.450   1.233 -0.4973 -0.3124  0.1233
 3719SOL     OW14873   2.830   4.779   4.968  0.0546 -0.9934  0.2590
 3719SOL    HW114874   2.874   4.731   5.039  0.2332 -1.3143 -0.0691
 3719SOL    HW214875   2.751   4.729   4.951  0.4178 -1.3649 -0.3269
 3719SOL     MW14876   2.826   4.767   4.975  0.1240 -1.0820  0.1420
 3720SOL     OW14877   3.621   3.540   4.755 -0.2789  0.3929 -0.0055
 3720SOL    HW114878   3.652   3.610   4.698  0.2996  0.3184  0.2114
 3720SOL    HW214879   3.631   3.575   4.844  0.3562 -0.0942  0.1221
 3720SOL     MW14880   3.626   3.554   4.759 -0.1236  0.3210  0.0386
 3721SOL     OW14881   0.253   2.109   1.810  0.0479 -0.2088 -0.2078
 3721SOL    HW114882   0.278   2.112   1.718  0.1700  0.8721 -0.1565
 3721SOL    HW214883   0.334   2.085   1.856 -0.1833 -1.4395 -0.4349
 3721SOL     MW14884   0.267   2.107   1.804  0.0339 -0.2280 -0.2303
 3722SOL     OW14885   1.034   1.253   0.506 -0.0006  0.3039 -0.1858
 3722SOL    HW114886   1.018   1.306   0.429 -0.8523  1.2372  0.6129
 3722SOL    HW214887   1.123   1.276   0.533  0.5920 -0.5819 -1.2870
 3722SOL     MW14888   1.043   1.263   0.500 -0.0337  0.3100 -0.2245
 3723SOL     OW14889   2.603   3.706   5.174 -0.0882 -0.5872  0.0908
 3723SOL    HW114890   2.514   3.708   5.211  0.0780 -1.4622  0.5518
 3723SOL    HW214891   2.639   3.622   5.201  0.7679 -0.3882 -0.3860
 3723SOL     MW14892   2.596   3.696   5.182  0.0426 -0.6737  0.0888
 3724SOL     OW14893   1.055   2.721   2.032 -0.3768 -0.2836  0.1364
 3724SOL    HW114894   1.129   2.764   2.074  0.4923  0.2668 -1.8639
 3724SOL    HW214895   1.090   2.639   1.998 -0.9928 -0.6015  0.2473
 3724SOL     MW14896   1.069   2.716   2.033 -0.3444 -0.2539 -0.1055
 3725SOL     OW14897   3.835   4.668   0.624  0.5328  0.6058  0.0165
 3725SOL    HW114898   3.916   4.715   0.603  2.1472 -2.1527 -0.4472
 3725SOL    HW214899   3.830   4.670   0.720  0.3067  2.0377 -0.0030
 3725SOL     MW14900   3.844   4.675   0.634  0.7105  0.4360 -0.0454
 3726SOL     OW14901   1.128   0.071   3.404 -0.3214  0.1303 -0.5158
 3726SOL    HW114902   1.056   0.070   3.466  0.1683 -2.0699  0.1137
 3726SOL    HW214903   1.206   0.058   3.458  0.2083 -0.9207 -1.4980
 3726SOL     MW14904   1.129   0.069   3.419 -0.1909 -0.2859 -0.5609
 3727SOL     OW14905   1.063   1.225   1.861  0.4256 -0.0468 -0.1399
 3727SOL    HW114906   1.003   1.151   1.865  2.3377 -1.7499 -1.2999
 3727SOL    HW214907   1.149   1.188   1.878  1.2287  2.3225  1.4894
 3727SOL     MW14908   1.066   1.211   1.863  0.7732  0.0385 -0.0799
 3728SOL     OW14909   2.846   2.681   1.947 -0.0282  0.4861  0.0789
 3728SOL    HW114910   2.853   2.644   2.035 -0.0416 -0.2621 -0.2334
 3728SOL    HW214911   2.754   2.708   1.940 -0.2733 -0.3770 -0.0724
 3728SOL     MW14912   2.835   2.680   1.958 -0.0613  0.2798  0.0196
 3729SOL     OW14913   4.787   4.956   4.050 -0.1361 -0.8301 -0.0417
 3729SOL    HW114914   4.859   4.907   4.009  0.3498 -0.4421  0.3405
 3729SOL    HW214915   4.804   5.047   4.027 -0.0429 -0.6439  0.7305
 3729SOL     MW14916   4.798   4.961   4.042 -0.0619 -0.7566  0.1060
 3730SOL     OW14917   2.839   1.199   4.174  0.5449 -0.4268 -0.1077
 3730SOL    HW114918   2.869   1.111   4.195  1.0439 -0.2385 -0.0160
 3730SOL    HW214919   2.755   1.207   4.220  0.2974 -0.9906 -0.4426
 3730SOL     MW14920   2.832   1.189   4.182  0.5771 -0.4749 -0.1388
 3731SOL     OW14921   5.282   2.715   1.381  0.0087  0.1079 -0.1600
 3731SOL    HW114922   5.250   2.701   1.470 -0.7433  0.1268 -0.4202
 3731SOL    HW214923   5.206   2.700   1.325  0.0341  1.7620 -0.6880
 3731SOL     MW14924   5.268   2.711   1.385 -0.0843  0.3220 -0.2609
 3732SOL     OW14925   1.150   1.319   4.868 -0.0615  0.9210 -0.0108
 3732SOL    HW114926   1.137   1.319   4.773  0.3122 -2.1010 -0.1368
 3732SOL    HW214927   1.244   1.332   4.879 -0.0186  0.6873 -0.0908
 3732SOL     MW14928   1.160   1.321   4.857 -0.0082  0.5043 -0.0372
 3733SOL     OW14929   1.090   4.797   0.753  0.5338  0.3877 -0.4034
 3733SOL    HW114930   1.146   4.719   0.745 -0.6248 -0.4351 -0.7625
 3733SOL    HW214931   1.039   4.798   0.672  0.2721  1.3255 -0.2386
 3733SOL     MW14932   1.091   4.787   0.741  0.3520  0.4024 -0.4283
 3734SOL     OW14933   4.281   0.850   3.520 -0.2860  0.2667  0.1206
 3734SOL    HW114934   4.219   0.920   3.540 -0.1500  0.8604 -1.4451
 3734SOL    HW214935   4.332   0.883   3.446  0.9576 -0.7836  0.4697
 3734SOL     MW14936   4.280   0.863   3.513 -0.1094  0.2083 -0.0352
 3735SOL     OW14937   2.245   3.495   3.738 -0.4657  0.2652  0.1990
 3735SOL    HW114938   2.206   3.580   3.721 -0.3576  0.8235  2.4942
 3735SOL    HW214939   2.334   3.502   3.702 -0.6170  0.9474 -0.0511
 3735SOL     MW14940   2.252   3.507   3.731 -0.4712  0.4240  0.4608
 3736SOL     OW14941   4.513   1.330   3.945 -0.5870 -0.1002 -0.4791
 3736SOL    HW114942   4.501   1.360   4.035 -0.4729  2.0201 -1.1180
 3736SOL    HW214943   4.432   1.284   3.924 -1.0015  0.2175  0.3975
 3736SOL     MW14944   4.501   1.328   3.953 -0.6254  0.2119 -0.4487
 3737SOL     OW14945   2.646   0.616   4.605  0.3526 -0.1554 -0.4504
 3737SOL    HW114946   2.737   0.604   4.633  0.3117  0.6599  0.0775
 3737SOL    HW214947   2.629   0.709   4.621 -0.7057 -0.3935 -0.1572
 3737SOL     MW14948   2.656   0.626   4.610  0.2119 -0.0815 -0.3453
 3738SOL     OW14949   1.451   4.926   5.214 -0.4353 -0.5013 -0.2498
 3738SOL    HW114950   1.422   5.017   5.207  0.8787 -0.1128 -0.9298
 3738SOL    HW214951   1.524   4.929   5.277  0.3806 -0.8772 -1.1497
 3738SOL     MW14952   1.457   4.938   5.221 -0.1626 -0.4997 -0.4521
 3739SOL     OW14953   2.932   0.432   0.366  0.3166  0.1161 -0.6426
 3739SOL    HW114954   3.004   0.372   0.346 -0.5003 -1.5143  1.0139
 3739SOL    HW214955   2.858   0.397   0.316  0.3051  0.9508 -1.2280
 3739SOL     MW14956   2.932   0.420   0.357  0.2106  0.0143 -0.5055
 3740SOL     OW14957   1.026   1.954   0.722 -0.3762  0.2898  0.3596
 3740SOL    HW114958   1.120   1.941   0.716 -0.1977  1.4139  0.5815
 3740SOL    HW214959   1.000   1.911   0.804 -0.2844 -1.1658 -0.3479
 3740SOL     MW14960   1.035   1.946   0.732 -0.3416  0.2474  0.2974
 3741SOL     OW14961   2.150   0.887   2.833  0.6355  0.2978 -0.0323
 3741SOL    HW114962   2.070   0.897   2.883 -0.0755 -0.7972 -0.9036
 3741SOL    HW214963   2.155   0.966   2.779  0.0616  0.3020 -0.0832
 3741SOL     MW14964   2.141   0.899   2.833  0.4710  0.1582 -0.1503
 3742SOL     OW14965   4.743   4.401   0.198 -0.4535  0.5451 -0.1333
 3742SOL    HW114966   4.676   4.350   0.243  1.6928 -2.8387 -0.4085
 3742SOL    HW214967   4.759   4.353   0.117  1.7367  1.6576 -0.4338
 3742SOL     MW14968   4.737   4.389   0.193  0.1016  0.2543 -0.2070
 3743SOL     OW14969   4.965   1.013   4.198  0.5060  0.0150 -0.1632
 3743SOL    HW114970   4.899   0.952   4.231  1.1451 -1.1400 -0.9399
 3743SOL    HW214971   5.045   0.961   4.193  0.8546  0.6406 -1.7303
 3743SOL     MW14972   4.966   0.998   4.202  0.6324 -0.0528 -0.4632
 3744SOL     OW14973   2.106   2.306   2.521  0.2309  0.2672  0.3914
 3744SOL    HW114974   2.038   2.249   2.484 -0.8517  1.0808  1.0560
 3744SOL    HW214975   2.149   2.251   2.586 -0.5193  0.0641  0.7331
 3744SOL     MW14976   2.103   2.292   2.524 -0.0037  0.3454  0.5203
 3745SOL     OW14977   0.890   5.070   1.220  0.8178  0.3724  0.0384
 3745SOL    HW114978   0.952   4.998   1.219  1.2765  0.7601  0.0784
 3745SOL    HW214979   0.825   5.045   1.285 -0.8330 -1.4782 -2.1707
 3745SOL     MW14980   0.890   5.058   1.228  0.6652  0.1851 -0.2393
 3746SOL     OW14981   3.688   0.581   4.409  0.4587 -0.5089  0.1812
 3746SOL    HW114982   3.775   0.594   4.372  0.9601  1.9852  1.9461
 3746SOL    HW214983   3.629   0.586   4.334  1.4456  3.6967 -0.5448
 3746SOL     MW14984   3.691   0.583   4.395  0.6492  0.3488  0.3142
 3747SOL     OW14985   1.878   3.584   0.509 -0.2247  0.4038  0.0843
 3747SOL    HW114986   1.808   3.640   0.541  0.2296  1.4139 -0.6184
 3747SOL    HW214987   1.866   3.581   0.414 -0.4683 -1.0288  0.1386
 3747SOL     MW14988   1.868   3.591   0.501 -0.1977  0.3497  0.0013
 3748SOL     OW14989   4.290   2.121   1.550  0.5401 -0.2257  0.8302
 3748SOL    HW114990   4.204   2.163   1.553  0.8772  0.9009 -1.8942
 3748SOL    HW214991   4.332   2.143   1.633 -0.2216  2.9078  0.4863
 3748SOL     MW14992   4.285   2.129   1.561  0.4857  0.3196  0.4374
 3749SOL     OW14993   0.056   4.772   4.016  0.2191  0.4995 -0.2701
 3749SOL    HW114994   0.112   4.702   4.050  0.9892  0.5828 -1.3027
 3749SOL    HW214995  -0.022   4.728   3.984 -0.4394  0.3996  1.3724
 3749SOL     MW14996   0.054   4.757   4.017  0.2334  0.4974 -0.1920
 3750SOL     OW14997   5.021   3.358   2.708  0.3424  0.0971  0.0030
 3750SOL    HW114998   5.116   3.368   2.700  0.2116  0.6185 -1.0186
 3750SOL    HW214999   5.002   3.276   2.662  0.3070 -0.0804  0.3288
 3750SOL     MW15000   5.031   3.349   2.701  0.3212  0.1411 -0.0861
 3751SOL     OW15001   3.979   2.686   3.037 -0.0199 -0.2616  0.2820
 3751SOL    HW115002   4.001   2.763   3.089  0.0211  1.1869 -1.7529
 3751SOL    HW215003   3.890   2.703   3.005  0.0190 -1.0140 -0.2549
 3751SOL     MW15004   3.970   2.698   3.040 -0.0097 -0.1725 -0.0473
 3752SOL     OW15005   1.308   4.428   4.569 -0.7559  0.1109  0.3440
 3752SOL    HW115006   1.343   4.339   4.575 -0.4494  0.3230  2.2742
 3752SOL    HW215007   1.312   4.462   4.658 -2.5781  1.4216 -0.0015
 3752SOL     MW15008   1.313   4.421   4.581 -0.9499  0.3058  0.5468
 3753SOL     OW15009   0.428   3.105   4.489  0.1190  0.5614 -0.0581
 3753SOL    HW115010   0.400   3.022   4.529  1.4778  1.3298  2.7269
 3753SOL    HW215011   0.366   3.170   4.522 -0.7476  0.7619 -1.9735
 3753SOL     MW15012   0.417   3.103   4.499  0.1820  0.6854  0.0532
 3754SOL     OW15013   4.668   4.856   4.275 -0.6652 -0.0518  0.0448
 3754SOL    HW115014   4.693   4.904   4.195 -3.0037  0.6421 -0.3318
 3754SOL    HW215015   4.683   4.764   4.253  0.2177  0.2295 -0.6132
 3754SOL     MW15016   4.673   4.851   4.262 -0.8515  0.0731 -0.0877
 3755SOL     OW15017   2.202   2.717   1.005  0.1666 -0.4264  0.4571
 3755SOL    HW115018   2.123   2.670   1.031  0.3164 -0.3532  1.0760
 3755SOL    HW215019   2.204   2.795   1.062 -0.2739  0.5383 -0.8119
 3755SOL     MW15020   2.192   2.721   1.016  0.1294 -0.2935  0.3739
 3756SOL     OW15021   0.555   2.680   5.339 -0.1962 -0.1757  0.2704
 3756SOL    HW115022   0.575   2.587   5.329  1.0775  0.1741 -0.8732
 3756SOL    HW215023   0.640   2.721   5.357 -0.8797  0.6647  1.7397
 3756SOL     MW15024   0.568   2.673   5.340 -0.1207 -0.0234  0.3121
 3757SOL     OW15025   2.353   1.213   0.309  0.5944 -0.2908 -0.1307
 3757SOL    HW115026   2.267   1.202   0.267  0.3355  0.6466  0.1428
 3757SOL    HW215027   2.378   1.124   0.335  0.7757 -0.9437 -2.2654
 3757SOL     MW15028   2.345   1.200   0.307  0.5845 -0.2544 -0.3690
 3758SOL     OW15029   2.074   0.861   0.933 -0.3795  0.0327 -0.2288
 3758SOL    HW115030   2.009   0.893   0.995 -1.0159  0.1438 -0.9420
 3758SOL    HW215031   2.128   0.937   0.914 -1.5323  0.5769 -1.4765
 3758SOL     MW15032   2.072   0.875   0.939 -0.6085  0.1166 -0.4798
 3759SOL     OW15033   5.474   5.303   2.227 -0.4036  0.8749  0.2014
 3759SOL    HW115034   5.414   5.289   2.154  0.7752 -0.6132 -0.5150
 3759SOL    HW215035   5.510   5.217   2.246 -0.9668  1.1406  2.8326
 3759SOL     MW15036   5.471   5.290   2.220 -0.3248  0.7184  0.4465
 3760SOL     OW15037   1.498   1.969   2.444 -0.7051  0.5630 -0.0550
 3760SOL    HW115038   1.494   2.063   2.430  0.3240  0.5539 -0.5354
 3760SOL    HW215039   1.520   1.933   2.357  2.0959  0.1692  0.7083
 3760SOL     MW15040   1.500   1.976   2.431 -0.2148  0.5114 -0.0188
 3761SOL     OW15041   1.451   3.334   4.778  0.1415 -0.2270  0.2166
 3761SOL    HW115042   1.487   3.321   4.690 -1.6788 -1.4148 -0.4093
 3761SOL    HW215043   1.401   3.254   4.796 -1.5227  0.9981  1.3314
 3761SOL     MW15044   1.450   3.322   4.769 -0.3046 -0.2222  0.2792
 3762SOL     OW15045   2.782   2.028   0.660  0.4609  0.9036 -0.3004
 3762SOL    HW115046   2.690   2.010   0.643  0.4515 -0.1317  0.7356
 3762SOL    HW215047   2.809   2.087   0.589 -0.6648  0.2327 -1.3119
 3762SOL     MW15048   2.774   2.033   0.649  0.3156  0.6852 -0.2973
 3763SOL     OW15049   5.112   0.824   2.783 -0.3469 -0.0945 -0.3643
 3763SOL    HW115050   5.024   0.850   2.809 -1.7034 -4.4412  0.2193
 3763SOL    HW215051   5.099   0.760   2.714  2.5154  0.4212 -1.5365
 3763SOL     MW15052   5.099   0.819   2.778 -0.1542 -0.5849 -0.4396
 3764SOL     OW15053   3.910   4.779   3.055  0.2299 -0.2997  0.6990
 3764SOL    HW115054   3.824   4.766   3.096  0.6263  0.2986  1.7634
 3764SOL    HW215055   3.936   4.692   3.025 -0.7657 -0.4777  0.3021
 3764SOL     MW15056   3.902   4.767   3.056  0.1532 -0.2459  0.7844
 3765SOL     OW15057   3.000   0.318   4.820 -0.3806  0.1511 -0.4251
 3765SOL    HW115058   2.917   0.293   4.779 -0.6586  0.4637 -0.0674
 3765SOL    HW215059   3.033   0.237   4.859  0.1216 -0.2520 -1.6446
 3765SOL     MW15060   2.993   0.304   4.820 -0.3519  0.1395 -0.5354
 3766SOL     OW15061   0.392   5.139   2.932 -0.3142  0.0698 -0.3706
 3766SOL    HW115062   0.380   5.080   2.857  1.3170 -0.0467 -0.5772
 3766SOL    HW215063   0.473   5.186   2.912 -0.0120  0.2463  1.1955
 3766SOL     MW15064   0.401   5.138   2.920 -0.0667  0.0775 -0.1965
 3767SOL     OW15065   1.016   0.211   4.944 -0.1352  0.5144  0.7233
 3767SOL    HW115066   0.932   0.199   4.987 -0.3994 -0.1756  0.0304
 3767SOL    HW215067   0.996   0.257   4.862 -0.3768 -2.6963 -1.1956
 3767SOL     MW15068   1.003   0.215   4.939 -0.2000  0.0151  0.3890
 3768SOL     OW15069   0.037   2.094   0.788  0.1215  0.4113 -0.0386
 3768SOL    HW115070   0.132   2.081   0.783 -0.1540 -2.2070 -0.2645
 3768SOL    HW215071   0.001   2.005   0.780 -2.2578  0.8599  3.5410
 3768SOL     MW15072   0.044   2.081   0.786 -0.2183  0.1336  0.3907
 3769SOL     OW15073   3.193   2.622   0.178 -0.1604  0.0988  0.7456
 3769SOL    HW115074   3.208   2.668   0.261 -1.0829 -0.8205  1.4479
 3769SOL    HW215075   3.245   2.542   0.185  0.8420  0.6409 -0.1572
 3769SOL     MW15076   3.202   2.618   0.190 -0.1502  0.0505  0.7200
 3770SOL     OW15077   4.677   3.528   1.044  0.2324 -0.2103 -0.4669
 3770SOL    HW115078   4.728   3.485   1.113  0.0886 -0.6878 -0.6591
 3770SOL    HW215079   4.622   3.590   1.091  0.6189 -0.0512 -0.2105
 3770SOL     MW15080   4.677   3.530   1.059  0.2634 -0.2510 -0.4587
 3771SOL     OW15081   2.603   4.261   0.416  0.0738  0.4223 -0.7041
 3771SOL    HW115082   2.586   4.167   0.407 -0.0038  0.3420  0.1358
 3771SOL    HW215083   2.524   4.296   0.456  1.0030  0.4022  1.3040
 3771SOL     MW15084   2.591   4.253   0.420  0.1828  0.4095 -0.3395
 3772SOL     OW15085   5.091   1.177   3.840  0.3025 -0.1356 -0.2779
 3772SOL    HW115086   5.039   1.219   3.908  0.3339  0.2481 -0.4878
 3772SOL    HW215087   5.182   1.190   3.868  0.2834 -1.3100  0.3879
 3772SOL     MW15088   5.096   1.184   3.852  0.3041 -0.2368 -0.2195
 3773SOL     OW15089   3.396   3.756   3.894  0.0521  0.3158 -0.0151
 3773SOL    HW115090   3.487   3.730   3.910  0.3827  1.8686  0.8536
 3773SOL    HW215091   3.403   3.826   3.829 -0.7713 -1.2387 -1.9008
 3773SOL     MW15092   3.409   3.762   3.887 -0.0110  0.3156 -0.1453
 3774SOL     OW15093   1.538   3.343   4.251 -0.3858 -0.4664 -0.0988
 3774SOL    HW115094   1.487   3.423   4.239 -1.1265 -0.8758  0.2800
 3774SOL    HW215095   1.618   3.358   4.201 -0.1111  0.8672  0.7039
 3774SOL     MW15096   1.542   3.355   4.243 -0.4455 -0.3481  0.0524
 3775SOL     OW15097   4.402   1.291   3.009  0.3848 -0.0746 -0.0663
 3775SOL    HW115098   4.314   1.255   3.004  0.4834 -0.2478 -0.5849
 3775SOL    HW215099   4.457   1.226   2.964  0.7005  0.2815 -0.1993
 3775SOL     MW15100   4.398   1.278   3.003  0.4379 -0.0512 -0.1497
 3776SOL     OW15101   1.654   5.397   4.851  0.1595  0.5707  0.2031
 3776SOL    HW115102   1.660   5.334   4.923  1.2692  0.6123  0.1615
 3776SOL    HW215103   1.745   5.413   4.825 -0.2076  0.8011 -1.0069
 3776SOL     MW15104   1.666   5.391   4.857  0.2545  0.6055  0.0428
 3777SOL     OW15105   4.176   2.808   4.983  0.2264 -0.3651  0.2434
 3777SOL    HW115106   4.264   2.833   4.956  0.4768 -1.6815 -0.1925
 3777SOL    HW215107   4.159   2.725   4.940 -1.5032  0.1826 -0.2478
 3777SOL     MW15108   4.185   2.801   4.974  0.0370 -0.4635  0.1247
 3778SOL     OW15109   0.814   2.976   3.691  0.3101 -0.3393 -0.1312
 3778SOL    HW115110   0.821   2.910   3.761 -0.3107  0.1041  0.3615
 3778SOL    HW215111   0.849   2.932   3.614  0.5865 -0.9990  0.3547
 3778SOL     MW15112   0.819   2.962   3.690  0.2660 -0.3670 -0.0059
 3779SOL     OW15113   2.008   5.018   0.534  0.0886 -0.6619 -0.4550
 3779SOL    HW115114   2.014   5.031   0.439  1.0964 -0.7317 -0.4137
 3779SOL    HW215115   2.061   5.089   0.571 -1.1169 -0.0212  0.1086
 3779SOL     MW15116   2.016   5.029   0.527  0.0633 -0.5888 -0.3775
 3780SOL     OW15117   3.783   4.569   3.342  0.0414 -0.0593  0.5156
 3780SOL    HW115118   3.866   4.583   3.387  0.6567 -0.2789 -0.5171
 3780SOL    HW215119   3.773   4.474   3.338 -0.7517 -0.0334  1.4832
 3780SOL     MW15120   3.792   4.559   3.347  0.0186 -0.0841  0.5073
 3781SOL     OW15121   2.829   0.686   2.603 -0.4246 -0.4476 -0.2295
 3781SOL    HW115122   2.904   0.664   2.548 -0.7850 -0.2832 -0.7886
 3781SOL    HW215123   2.815   0.779   2.590 -0.3924 -0.3614  0.2984
 3781SOL     MW15124   2.836   0.695   2.595 -0.4666 -0.4155 -0.2335
 3782SOL     OW15125   5.378   4.958   2.395 -0.8794 -0.8045  0.5159
 3782SOL    HW115126   5.378   4.870   2.434 -1.7446  0.0346  2.5998
 3782SOL    HW215127   5.286   4.983   2.395 -0.7524 -0.2631 -1.0282
 3782SOL     MW15128   5.366   4.950   2.400 -0.9739 -0.6278  0.5850
 3783SOL     OW15129   0.700   5.463   0.818 -0.4188  0.1244 -0.0745
 3783SOL    HW115130   0.618   5.437   0.860 -0.0020  1.5366  1.7445
 3783SOL    HW215131   0.765   5.458   0.887  0.2011  3.1154 -0.3212
 3783SOL     MW15132   0.698   5.459   0.832 -0.2861  0.6880  0.1268
 3784SOL     OW15133   5.218   3.571   2.858  0.2144  0.1525  0.2845
 3784SOL    HW115134   5.135   3.544   2.897  0.7298  2.3791  3.3027
 3784SOL    HW215135   5.196   3.646   2.804  0.2316  0.7510  1.0957
 3784SOL     MW15136   5.204   3.577   2.856  0.2826  0.5142  0.7748
 3785SOL     OW15137   2.566   5.219   1.146  0.4571  0.1176 -0.5131
 3785SOL    HW115138   2.576   5.144   1.205 -3.1848 -1.0039 -1.0325
 3785SOL    HW215139   2.603   5.189   1.063 -1.3477 -1.4120 -0.8421
 3785SOL     MW15140   2.572   5.205   1.143 -0.2402 -0.2218 -0.6217
 3786SOL     OW15141   1.224   1.728   2.843  0.4118  0.0397 -0.2581
 3786SOL    HW115142   1.151   1.680   2.883 -0.8664  0.2828 -2.1748
 3786SOL    HW215143   1.182   1.795   2.789  2.0166 -0.1797 -1.8665
 3786SOL     MW15144   1.209   1.730   2.841  0.4536  0.0428 -0.7094
 3787SOL     OW15145   4.619   3.054   3.454  0.1946  0.6177 -0.6357
 3787SOL    HW115146   4.703   3.029   3.494  0.2436  0.2869 -0.9361
 3787SOL    HW215147   4.555   3.048   3.525  0.1883 -0.4554 -0.7148
 3787SOL     MW15148   4.622   3.050   3.468  0.2001  0.4379 -0.6842
 3788SOL     OW15149   2.257   4.145   4.483 -0.2558 -0.1288 -0.0303
 3788SOL    HW115150   2.271   4.134   4.577 -1.3146  1.5729  0.3730
 3788SOL    HW215151   2.171   4.108   4.467 -0.9551  1.3857  0.0851
 3788SOL     MW15152   2.248   4.139   4.493 -0.4808  0.2829  0.0361
 3789SOL     OW15153   2.433   3.223   0.289  0.3278 -0.0610  0.7820
 3789SOL    HW115154   2.361   3.175   0.248  0.2023  0.3162  0.5547
 3789SOL    HW215155   2.432   3.196   0.381  1.0872 -1.5056  0.3949
 3789SOL     MW15156   2.424   3.213   0.295  0.4089 -0.1976  0.7033
 3790SOL     OW15157   2.189   1.767   2.175 -0.1955  0.0268  0.1786
 3790SOL    HW115158   2.219   1.857   2.186  0.8425 -0.1976 -0.7067
 3790SOL    HW215159   2.262   1.722   2.133 -0.4079 -1.4177  1.2822
 3790SOL     MW15160   2.202   1.773   2.171 -0.0898 -0.1868  0.2066
 3791SOL     OW15161   1.573   4.515   4.827  0.2935  0.7746 -0.1922
 3791SOL    HW115162   1.612   4.586   4.776  1.3425  1.1751  1.1007
 3791SOL    HW215163   1.643   4.451   4.836 -0.4291 -0.1079 -0.7275
 3791SOL     MW15164   1.587   4.516   4.822  0.3353  0.7129 -0.0952
 3792SOL     OW15165   1.146   0.131   0.105  0.3483 -0.3944 -0.2847
 3792SOL    HW115166   1.129   0.135   0.199 -0.5473 -1.2273 -0.3968
 3792SOL    HW215167   1.236   0.099   0.099  0.2357 -0.8470  0.2939
 3792SOL     MW15168   1.156   0.127   0.117  0.2193 -0.5590 -0.2250
 3793SOL     OW15169   4.009   5.077   4.954 -0.1994 -0.0869 -0.4220
 3793SOL    HW115170   4.034   4.990   4.986 -1.2787 -0.2013  0.1605
 3793SOL    HW215171   4.090   5.113   4.918  0.5276 -0.8912  0.3443
 3793SOL     MW15172   4.023   5.070   4.954 -0.2445 -0.2045 -0.2493
 3794SOL     OW15173   1.066   0.496   2.101 -0.1453 -0.3600 -0.0058
 3794SOL    HW115174   0.991   0.437   2.107 -0.3168 -0.0312  1.2564
 3794SOL    HW215175   1.049   0.564   2.165  1.0002 -0.0025 -0.0524
 3794SOL     MW15176   1.054   0.497   2.110 -0.0206 -0.2721  0.1498
 3795SOL     OW15177   4.782   3.747   3.432 -0.2907 -0.0097 -0.4144
 3795SOL    HW115178   4.730   3.822   3.461 -1.0449 -0.5895 -0.2506
 3795SOL    HW215179   4.735   3.712   3.356 -0.0635 -0.4513 -0.3578
 3795SOL     MW15180   4.769   3.752   3.426 -0.3582 -0.1404 -0.3862
 3796SOL     OW15181   2.733   2.638   3.430  0.0405 -0.1638 -0.2810
 3796SOL    HW115182   2.713   2.731   3.443 -0.3746 -0.1384 -1.0427
 3796SOL    HW215183   2.756   2.606   3.517  0.5583  0.7385 -0.0671
 3796SOL     MW15184   2.734   2.646   3.443  0.0537 -0.0450 -0.3512
 3797SOL     OW15185   1.337   1.904   3.269  0.1421 -0.4419  0.1699
 3797SOL    HW115186   1.424   1.876   3.297  1.3477 -0.4020 -3.1231
 3797SOL    HW215187   1.291   1.822   3.250  0.3207 -0.4231 -0.3614
 3797SOL     MW15188   1.342   1.890   3.270  0.3193 -0.4344 -0.3197
 3798SOL     OW15189   0.001   4.724   5.000 -0.2767  0.0085 -0.2199
 3798SOL    HW115190   0.035   4.663   4.934  1.8157 -0.0272  0.7869
 3798SOL    HW215191  -0.014   4.670   5.078 -0.9535  0.3460 -0.1079
 3798SOL     MW15192   0.004   4.709   5.002 -0.0954  0.0471 -0.0767
 3799SOL     OW15193   2.037   0.413   0.793 -0.7530 -0.0033 -0.0315
 3799SOL    HW115194   1.976   0.455   0.732 -1.3246 -0.3393  0.2959
 3799SOL    HW215195   2.074   0.340   0.744 -0.8557  0.0080 -0.1267
 3799SOL     MW15196   2.034   0.409   0.779 -0.8393 -0.0449 -0.0018
 3800SOL     OW15197   2.107   5.314   2.258 -0.5034 -0.1898  0.2799
 3800SOL    HW115198   2.101   5.407   2.280 -0.4850 -0.2018  0.3355
 3800SOL    HW215199   2.194   5.288   2.287 -0.4768 -0.2042  0.1888
 3800SOL     MW15200   2.117   5.323   2.264 -0.4977 -0.1932  0.2753
 3801SOL     OW15201   2.226   1.316   3.504  0.5004  0.1495 -0.2335
 3801SOL    HW115202   2.154   1.377   3.485  1.2802  0.9378 -0.7700
 3801SOL    HW215203   2.291   1.370   3.549  0.3179 -0.8060  1.2236
 3801SOL     MW15204   2.225   1.331   3.507  0.5768  0.1281 -0.1156
 3802SOL     OW15205   0.594   1.379   2.978 -0.1637  0.3246  0.0352
 3802SOL    HW115206   0.537   1.322   2.926  0.5936 -0.8655  0.4764
 3802SOL    HW215207   0.595   1.339   3.065  0.6573  0.8131  0.2610
 3802SOL     MW15208   0.587   1.366   2.983  0.0384  0.2348  0.1206
 3803SOL     OW15209   2.514   2.302   3.114 -0.1651 -0.6624 -0.1189
 3803SOL    HW115210   2.504   2.350   3.033 -0.0314 -0.6821 -0.1476
 3803SOL    HW215211   2.429   2.310   3.158  0.1723  0.4707  0.3594
 3803SOL     MW15212   2.502   2.309   3.110 -0.1048 -0.5199 -0.0613
 3804SOL     OW15213   0.490   0.432   1.295  0.4516 -0.1400  0.5179
 3804SOL    HW115214   0.466   0.524   1.301 -0.3599 -0.4415  3.4353
 3804SOL    HW215215   0.585   0.433   1.282  0.2795  1.0393 -1.0181
 3804SOL     MW15216   0.499   0.444   1.294  0.3257 -0.0276  0.6947
 3805SOL     OW15217   2.897   1.763   5.106  0.2829  0.1825  0.5100
 3805SOL    HW115218   2.856   1.773   5.192 -1.3560 -0.8151 -0.1106
 3805SOL    HW215219   2.852   1.826   5.050  1.2870  0.7735  0.3497
 3805SOL     MW15220   2.886   1.772   5.110  0.2016  0.1304  0.4100
 3806SOL     OW15221   4.463   1.198   3.260  0.2910 -0.3047 -0.4460
 3806SOL    HW115222   4.444   1.104   3.251  0.0938 -0.2199 -0.9488
 3806SOL    HW215223   4.444   1.234   3.174 -0.3954  0.3400 -0.0274
 3806SOL     MW15224   4.458   1.190   3.248  0.1779 -0.2113 -0.4567
 3807SOL     OW15225   2.685   1.091   4.563  0.4322 -0.2211  0.4661
 3807SOL    HW115226   2.656   1.133   4.482  0.4251  0.4495  0.8053
 3807SOL    HW215227   2.721   1.163   4.616  2.7348 -0.9893  0.0751
 3807SOL     MW15228   2.686   1.106   4.560  0.7260 -0.2336  0.4595
 3808SOL     OW15229   5.023   0.281   2.194 -0.1742 -0.5764  0.2389
 3808SOL    HW115230   5.037   0.366   2.238  0.9722 -0.1187 -0.9366
 3808SOL    HW215231   5.111   0.246   2.183 -0.6964 -2.4493  1.6486
 3808SOL     MW15232   5.036   0.288   2.198 -0.0943 -0.7575  0.2689
 3809SOL     OW15233   3.422   1.867   3.061  0.2009  0.7030  0.1898
 3809SOL    HW115234   3.477   1.924   3.114 -0.8357  1.1522  0.8131
 3809SOL    HW215235   3.383   1.924   2.995 -0.0075  0.5244  0.1543
 3809SOL     MW15236   3.424   1.881   3.060  0.0415  0.7376  0.2651
 3810SOL     OW15237   1.872   2.011   4.460 -0.4053 -0.1896  0.4196
 3810SOL    HW115238   1.788   1.966   4.457 -0.0032 -0.9039 -1.7824
 3810SOL    HW215239   1.886   2.031   4.553 -1.2089 -3.4189  1.3348
 3810SOL     MW15240   1.863   2.008   4.472 -0.4567 -0.6944  0.2549
 3811SOL     OW15241   2.712   0.502   1.730  0.6722 -0.1393 -0.2779
 3811SOL    HW115242   2.656   0.426   1.714 -0.5741  1.0476 -1.9534
 3811SOL    HW215243   2.782   0.494   1.665  0.4585  0.1997 -0.5542
 3811SOL     MW15244   2.714   0.491   1.720  0.4853  0.0560 -0.5277
 3812SOL     OW15245   1.194   3.636   4.433  0.1569  0.6019  0.1297
 3812SOL    HW115246   1.122   3.620   4.372  0.9747 -1.6230 -0.3526
 3812SOL    HW215247   1.186   3.566   4.498  2.2027 -0.0997 -0.2996
 3812SOL     MW15248   1.184   3.625   4.433  0.5235  0.2273  0.0130
 3813SOL     OW15249   2.826   2.400   2.962 -0.1442 -0.3182  0.6335
 3813SOL    HW115250   2.750   2.445   2.925  1.4177  1.2067 -0.8590
 3813SOL    HW215251   2.823   2.423   3.055 -2.3166 -1.5574  0.9479
 3813SOL     MW15252   2.816   2.409   2.970 -0.2223 -0.2816  0.4827
 3814SOL     OW15253   2.866   5.111   1.814  0.4575  0.0854 -0.4302
 3814SOL    HW115254   2.811   5.142   1.742 -0.6545 -0.8873 -0.0299
 3814SOL    HW215255   2.914   5.036   1.777  1.2043  0.6665 -0.6538
 3814SOL     MW15256   2.865   5.105   1.800  0.4108  0.0353 -0.4076
 3815SOL     OW15257   0.570   0.360   5.414 -0.9036 -0.0591 -0.6670
 3815SOL    HW115258   0.503   0.427   5.422 -0.6706  0.1156 -0.1468
 3815SOL    HW215259   0.653   0.408   5.412 -0.7505 -0.3151 -0.5306
 3815SOL     MW15260   0.572   0.374   5.415 -0.8542 -0.0695 -0.5829
 3816SOL     OW15261   2.238   3.696   2.295 -0.2456  0.3096 -0.4634
 3816SOL    HW115262   2.224   3.659   2.208  0.5720 -0.4162 -0.2965
 3816SOL    HW215263   2.326   3.668   2.320 -0.8115 -0.3160  0.9854
 3816SOL     MW15264   2.247   3.688   2.287 -0.2134  0.1366 -0.2566
 3817SOL     OW15265   0.828   1.076   4.589  0.1926  0.0629 -0.1813
 3817SOL    HW115266   0.793   1.013   4.526 -0.0889  0.0455 -0.0095
 3817SOL    HW215267   0.752   1.104   4.640  0.6957 -1.4409  1.5048
 3817SOL     MW15268   0.814   1.071   4.588  0.2209 -0.1319  0.0565
 3818SOL     OW15269   2.740   0.237   2.742 -0.2642 -0.4672 -0.7339
 3818SOL    HW115270   2.813   0.215   2.684 -1.0508 -0.8931 -1.5983
 3818SOL    HW215271   2.755   0.329   2.765 -1.1220  0.4861 -3.5174
 3818SOL     MW15272   2.751   0.246   2.737 -0.4747 -0.3997 -1.2009
 3819SOL     OW15273   5.389   5.120   3.668  0.2452  0.4931  0.0173
 3819SOL    HW115274   5.425   5.112   3.756  2.6931 -0.5776 -0.9924
 3819SOL    HW215275   5.464   5.104   3.610 -0.7499  3.3196 -2.3001
 3819SOL     MW15276   5.404   5.117   3.672  0.4311  0.7179 -0.4086
 3820SOL     OW15277   3.125   1.189   1.034 -0.1164 -0.8096 -0.4223
 3820SOL    HW115278   3.190   1.252   1.067  0.9369 -1.7794 -0.5799
 3820SOL    HW215279   3.047   1.242   1.018  1.5170  1.0329 -3.1053
 3820SOL     MW15280   3.124   1.204   1.036  0.2275 -0.6978 -0.7859
 3821SOL     OW15281   4.114   1.358   1.982 -0.1252 -0.6670 -0.2399
 3821SOL    HW115282   4.136   1.446   2.013 -1.2933  0.1428 -1.5745
 3821SOL    HW215283   4.152   1.354   1.895  2.2483 -2.5326  0.7828
 3821SOL     MW15284   4.122   1.369   1.975  0.0291 -0.8022 -0.2798
 3822SOL     OW15285   2.840   3.278   3.906  0.1000 -0.6489 -0.1395
 3822SOL    HW115286   2.755   3.235   3.893  0.3478 -0.7625 -1.6291
 3822SOL    HW215287   2.898   3.235   3.843  0.5911  1.1856 -1.0049
 3822SOL     MW15288   2.837   3.267   3.896  0.1946 -0.4286 -0.4410
 3823SOL     OW15289   5.193   4.547   1.708  0.2881 -0.2618 -0.0177
 3823SOL    HW115290   5.152   4.623   1.749  1.0368 -0.2702  0.7829
 3823SOL    HW215291   5.129   4.477   1.717  0.4454 -0.2686  1.1788
 3823SOL     MW15292   5.180   4.548   1.714  0.4041 -0.2637  0.2380
 3824SOL     OW15293   1.564   3.863   5.029 -0.2071 -0.3661 -0.1491
 3824SOL    HW115294   1.538   3.878   5.120 -0.3680 -1.6969  0.0442
 3824SOL    HW215295   1.627   3.791   5.033  0.1025 -0.1715 -1.0619
 3824SOL     MW15296   1.569   3.856   5.041 -0.1881 -0.5115 -0.2412
 3825SOL     OW15297   0.397   4.433   2.816  0.3033 -0.3449 -0.0218
 3825SOL    HW115298   0.389   4.400   2.906 -1.5382 -0.0400 -0.0360
 3825SOL    HW215299   0.308   4.459   2.792  1.1198  1.6034 -1.1639
 3825SOL     MW15300   0.385   4.432   2.825  0.1721 -0.0565 -0.1698
 3826SOL     OW15301   4.232   3.952   0.366  0.0533 -0.4379 -0.4093
 3826SOL    HW115302   4.313   3.989   0.401 -1.2090  1.0307  1.1249
 3826SOL    HW215303   4.261   3.882   0.308  2.3928 -0.2809  0.4640
 3826SOL     MW15304   4.246   3.948   0.363  0.1912 -0.2298 -0.1011
 3827SOL     OW15305   0.824   2.300   4.701 -0.7067 -0.0696  0.4956
 3827SOL    HW115306   0.820   2.221   4.647 -1.5166  0.4747 -0.2656
 3827SOL    HW215307   0.916   2.326   4.698 -0.9085  0.6006 -1.6264
 3827SOL     MW15308   0.835   2.293   4.694 -0.8362  0.0859  0.1265
 3828SOL     OW15309   3.844   3.169   4.989  0.6453 -0.1265  0.1171
 3828SOL    HW115310   3.831   3.198   5.079  0.5626 -1.5301  0.5711
 3828SOL    HW215311   3.768   3.113   4.970  2.3133 -2.6164  0.3637
 3828SOL     MW15312   3.833   3.166   4.998  0.8482 -0.6249  0.2068
 3829SOL     OW15313   4.041   2.603   0.021  0.4909 -0.2069  0.1995
 3829SOL    HW115314   4.106   2.653   0.071 -0.2124 -0.1157  1.0544
 3829SOL    HW215315   4.033   2.521   0.069 -0.4132 -0.0012  0.4130
 3829SOL     MW15316   4.048   2.599   0.034  0.2852 -0.1689  0.3363
 3830SOL     OW15317   5.294   1.336   1.569  0.1291 -0.1424 -0.5917
 3830SOL    HW115318   5.228   1.395   1.535 -1.2822 -2.2359 -1.7163
 3830SOL    HW215319   5.375   1.363   1.527 -0.7916  0.0103 -2.3324
 3830SOL     MW15320   5.296   1.347   1.560 -0.1694 -0.3909 -0.9585
 3831SOL     OW15321   0.763   3.979   2.122  0.2354  0.0642  0.2032
 3831SOL    HW115322   0.755   3.886   2.143  0.8174 -0.2802 -0.9751
 3831SOL    HW215323   0.707   4.023   2.185  0.7080 -1.0055  1.4215
 3831SOL     MW15324   0.755   3.972   2.133  0.3704 -0.1168  0.2083
 3832SOL     OW15325   2.894   0.327   3.378  0.1127  0.3138  0.3336
 3832SOL    HW115326   2.876   0.318   3.472 -0.9973 -0.7806  0.0396
 3832SOL    HW215327   2.825   0.384   3.345 -0.0802 -0.0987  0.0144
 3832SOL     MW15328   2.883   0.333   3.386 -0.0541  0.1209  0.2551
 3833SOL     OW15329   5.444   0.491   4.784 -0.4915 -0.0079 -0.1616
 3833SOL    HW115330   5.408   0.570   4.744 -1.0722 -0.4810 -0.5949
 3833SOL    HW215331   5.366   0.443   4.815 -0.2664 -1.1955 -1.3786
 3833SOL     MW15332   5.429   0.495   4.783 -0.5370 -0.2205 -0.3729
 3834SOL     OW15333   1.097   5.441   2.899 -0.1926 -0.0758 -0.4345
 3834SOL    HW115334   1.044   5.475   2.827  0.7658  0.9277 -0.6909
 3834SOL    HW215335   1.046   5.461   2.977 -0.3107  0.6797 -0.6945
 3834SOL     MW15336   1.083   5.448   2.900 -0.0851  0.1494 -0.5006
 3835SOL     OW15337   4.136   0.180   3.507  0.3139 -0.5003 -0.0906
 3835SOL    HW115338   4.141   0.085   3.514 -0.9094 -0.6621 -1.1230
 3835SOL    HW215339   4.047   0.198   3.476 -0.5547  1.1624  2.9175
 3835SOL     MW15340   4.125   0.171   3.504  0.0461 -0.3081  0.1623
 3836SOL     OW15341   0.163   3.598   2.533 -0.1761 -0.0899 -0.0097
 3836SOL    HW115342   0.112   3.519   2.518 -1.0876 -0.0700  2.5573
 3836SOL    HW215343   0.155   3.647   2.451 -2.4799 -1.0887 -0.4622
 3836SOL     MW15344   0.156   3.594   2.520 -0.5877 -0.2152  0.2610
 3837SOL     OW15345   1.155   1.349   3.778 -0.1855  0.3236 -0.1823
 3837SOL    HW115346   1.092   1.282   3.751 -0.3247 -0.0516  0.9936
 3837SOL    HW215347   1.224   1.300   3.824  1.3094  0.6561 -1.9452
 3837SOL     MW15348   1.156   1.334   3.781 -0.0119  0.3182 -0.2575
 3838SOL     OW15349   5.374   0.575   2.203  0.2411  0.4710  0.0359
 3838SOL    HW115350   5.335   0.645   2.150  0.0433  0.8378  0.6437
 3838SOL    HW215351   5.332   0.585   2.289 -0.4175 -0.9253 -0.0928
 3838SOL     MW15352   5.363   0.585   2.207  0.1315  0.3392  0.0973
 3839SOL     OW15353   4.592   1.652   0.181  0.3915 -0.0939  0.0247
 3839SOL    HW115354   4.624   1.739   0.207  0.0095 -0.0809  0.4493
 3839SOL    HW215355   4.664   1.593   0.202  0.7972  0.1617 -0.5980
 3839SOL     MW15356   4.605   1.656   0.187  0.3945 -0.0595 -0.0007
 3840SOL     OW15357   4.382   4.134   3.832 -0.6759 -0.1103  0.3063
 3840SOL    HW115358   4.380   4.211   3.890  0.0890  0.3577 -0.2671
 3840SOL    HW215359   4.294   4.128   3.796  0.1847  3.1275 -2.9659
 3840SOL     MW15360   4.371   4.143   3.835 -0.4678  0.3641 -0.1860
 3841SOL     OW15361   4.283   5.375   3.755 -0.1227 -0.0793  0.2917
 3841SOL    HW115362   4.359   5.325   3.726 -0.3981 -1.5576  1.9849
 3841SOL    HW215363   4.230   5.385   3.676 -0.4070 -3.1290 -0.0143
 3841SOL     MW15364   4.286   5.370   3.741 -0.1944 -0.6590  0.4693
 3842SOL     OW15365   5.110   2.616   4.878 -0.2323 -0.3929 -0.1511
 3842SOL    HW115366   5.188   2.594   4.827 -0.2667  0.5221 -0.6212
 3842SOL    HW215367   5.059   2.536   4.880  0.3496 -0.7782 -0.5141
 3842SOL     MW15368   5.114   2.603   4.872 -0.1622 -0.3251 -0.2578
 3843SOL     OW15369   1.274   1.442   3.333 -0.1036 -0.2261  0.1618
 3843SOL    HW115370   1.212   1.371   3.316  0.3373 -0.8869  1.1673
 3843SOL    HW215371   1.258   1.465   3.425 -0.3513  1.1086 -0.1925
 3843SOL     MW15372   1.264   1.435   3.343 -0.0789 -0.1398  0.2451
 3844SOL     OW15373   0.931   2.684   2.648 -0.4114 -0.4213 -0.2391
 3844SOL    HW115374   0.843   2.706   2.616 -0.5479 -0.1784  0.2974
 3844SOL    HW215375   0.990   2.738   2.595 -0.5306 -1.0037 -1.0009
 3844SOL     MW15376   0.927   2.694   2.637 -0.4441 -0.4648 -0.2679
 3845SOL     OW15377   2.506   3.553   3.639  0.0524  0.9030  0.0283
 3845SOL    HW115378   2.536   3.641   3.616 -0.7541  1.0515 -0.4989
 3845SOL    HW215379   2.568   3.495   3.595 -0.6758  1.1988 -1.4747
 3845SOL     MW15380   2.518   3.557   3.630 -0.1441  0.9599 -0.2316
 3846SOL     OW15381   2.628   3.135   1.897  0.7760 -0.2036 -0.1057
 3846SOL    HW115382   2.627   3.105   1.988  1.3444 -0.1436 -0.0790
 3846SOL    HW215383   2.558   3.085   1.855  0.8523 -0.6134  0.2441
 3846SOL     MW15384   2.619   3.124   1.903  0.8586 -0.2484 -0.0575
 3847SOL     OW15385   1.975   4.794   3.664  0.4925 -0.2074  0.0116
 3847SOL    HW115386   1.933   4.731   3.722 -0.1380  0.6247  0.4784
 3847SOL    HW215387   1.904   4.832   3.613  0.8914 -0.0288 -0.4209
 3847SOL     MW15388   1.961   4.791   3.665  0.4628 -0.0780  0.0160
 3848SOL     OW15389   0.650   4.480   0.328 -0.3703  0.0165  0.1462
 3848SOL    HW115390   0.654   4.427   0.407 -0.7720  0.3834  0.4197
 3848SOL    HW215391   0.626   4.567   0.359 -0.0640  0.2771 -0.3313
 3848SOL     MW15392   0.647   4.484   0.342 -0.3825  0.0968  0.1201
 3849SOL     OW15393   3.680   0.079   3.967  0.0285  0.3156  0.4438
 3849SOL    HW115394   3.635   0.065   3.883  0.6161 -1.6368  0.4119
 3849SOL    HW215395   3.771   0.055   3.950  0.3672  0.8655  1.4015
 3849SOL     MW15396   3.685   0.074   3.954  0.1471  0.1361  0.5623
 3850SOL     OW15397   5.003   0.285   4.272  0.7945  0.2377 -0.5239
 3850SOL    HW115398   5.067   0.345   4.310  0.4205  0.8683 -0.8736
 3850SOL    HW215399   4.992   0.316   4.182 -1.6134  1.5084  0.1305
 3850SOL     MW15400   5.010   0.297   4.265  0.4384  0.4811 -0.4849
 3851SOL     OW15401   4.482   0.934   2.224  0.2491 -0.0133  0.4474
 3851SOL    HW115402   4.390   0.952   2.245  0.1465 -2.0565  2.0064
 3851SOL    HW215403   4.479   0.854   2.171  1.2033 -1.3631  2.3328
 3851SOL     MW15404   4.470   0.926   2.220  0.3581 -0.4476  0.8883
 3852SOL     OW15405   5.130   4.267   0.253  0.5413 -0.0901 -0.0382
 3852SOL    HW115406   5.060   4.215   0.214  0.0716 -0.1689  0.8740
 3852SOL    HW215407   5.192   4.281   0.182 -0.8561  0.8055 -1.1214
 3852SOL     MW15408   5.129   4.262   0.239  0.3023  0.0145 -0.0601
 3853SOL     OW15409   3.810   0.392   4.566 -0.2647  0.2252  0.2507
 3853SOL    HW115410   3.774   0.459   4.507  0.1328  0.1400 -0.0948
 3853SOL    HW215411   3.905   0.407   4.564 -0.2752  0.4344  1.1384
 3853SOL     MW15412   3.818   0.403   4.558 -0.2152  0.2411  0.3201
 3854SOL     OW15413   0.995   2.115   5.424 -0.6367 -0.0847  0.4155
 3854SOL    HW115414   0.990   2.027   5.387 -0.6525  0.0216  0.1613
 3854SOL    HW215415   1.087   2.140   5.412 -0.8554  0.3318 -0.4446
 3854SOL     MW15416   1.006   2.107   5.417 -0.6667 -0.0178  0.2728
 3855SOL     OW15417   4.525   4.416   1.824  0.1599 -0.1086 -0.3655
 3855SOL    HW115418   4.528   4.511   1.816  2.5206 -0.1789 -0.9900
 3855SOL    HW215419   4.566   4.398   1.909  1.0404 -0.6255 -0.8935
 3855SOL     MW15420   4.530   4.426   1.834  0.5748 -0.1838 -0.5130
 3856SOL     OW15421   1.605   0.346   2.432  0.1365  0.3747 -0.7497
 3856SOL    HW115422   1.701   0.351   2.432  0.2499 -1.2396 -0.3634
 3856SOL    HW215423   1.584   0.284   2.363 -0.6035  0.3211 -0.4833
 3856SOL     MW15424   1.615   0.339   2.423  0.0563  0.1612 -0.6661
 3857SOL     OW15425   5.006   0.873   4.857  0.3676  0.2378  0.2434
 3857SOL    HW115426   5.098   0.895   4.867  0.7770 -1.4812  0.6755
 3857SOL    HW215427   4.989   0.880   4.763  1.7862 -2.2992 -0.2832
 3857SOL     MW15428   5.016   0.876   4.846  0.6016 -0.3070  0.2313
 3858SOL     OW15429   4.307   1.705   1.776  0.3661 -0.7978 -0.4465
 3858SOL    HW115430   4.249   1.778   1.800  0.6784 -0.9538  0.8489
 3858SOL    HW215431   4.387   1.747   1.745  1.0573 -0.5117  1.5269
 3858SOL     MW15432   4.310   1.720   1.775  0.4946 -0.7812 -0.0281
 3859SOL     OW15433   1.198   3.151   4.669  0.0078  0.2754  0.0836
 3859SOL    HW115434   1.166   3.235   4.634 -0.4823  0.2896  0.5455
 3859SOL    HW215435   1.128   3.089   4.649  0.6116 -0.1582 -0.7544
 3859SOL     MW15436   1.185   3.154   4.662  0.0224  0.2217  0.0355
 3860SOL     OW15437   5.326   5.414   4.140 -0.1615  0.4411  0.1563
 3860SOL    HW115438   5.343   5.332   4.092  0.2999  0.5933  0.0521
 3860SOL    HW215439   5.272   5.387   4.214  1.3236 -0.2424  1.0405
 3860SOL     MW15440   5.322   5.400   4.144  0.0876  0.3731  0.2562
 3861SOL     OW15441   2.992   1.983   2.828  0.4055 -0.1214 -0.5002
 3861SOL    HW115442   3.061   2.017   2.771  1.0614 -0.8351 -0.1655
 3861SOL    HW215443   2.993   1.888   2.811 -0.8772 -0.0765 -0.8927
 3861SOL     MW15444   3.001   1.975   2.819  0.3253 -0.2070 -0.5076
 3862SOL     OW15445   5.092   5.234   3.785 -0.1532  0.6373  0.3072
 3862SOL    HW115446   5.036   5.164   3.752 -1.8196  1.3453  1.4955
 3862SOL    HW215447   5.064   5.312   3.739 -0.3831  1.0554  1.1259
 3862SOL     MW15448   5.081   5.235   3.775 -0.3960  0.7815  0.5641
 3863SOL     OW15449   1.392   0.498   2.769  0.0756 -0.2742 -0.4218
 3863SOL    HW115450   1.320   0.452   2.726 -0.0877  0.7964 -1.3432
 3863SOL    HW215451   1.352   0.536   2.847 -0.2176 -0.1765 -0.6167
 3863SOL     MW15452   1.377   0.497   2.774  0.0171 -0.1247 -0.5647
 3864SOL     OW15453   1.612   4.978   3.352  0.4187  0.4846  0.0084
 3864SOL    HW115454   1.666   4.993   3.274 -0.9667  0.9701 -0.8983
 3864SOL    HW215455   1.555   5.055   3.356 -0.3631 -0.1223  0.7889
 3864SOL     MW15456   1.612   4.990   3.342  0.1413  0.4691 -0.0078
 3865SOL     OW15457   3.580   4.899   0.761  0.1693 -0.0646 -0.0539
 3865SOL    HW115458   3.560   4.826   0.701  3.2991  0.3798 -1.8389
 3865SOL    HW215459   3.517   4.967   0.737  0.1313 -0.5911 -1.5455
 3865SOL     MW15460   3.569   4.898   0.750  0.5651 -0.0751 -0.4733
 3866SOL     OW15461   4.963   4.633   2.292  0.3920  0.5343 -0.0346
 3866SOL    HW115462   4.874   4.602   2.273  0.7045 -0.7192  0.4643
 3866SOL    HW215463   5.015   4.553   2.301  1.1565  1.1622  1.6614
 3866SOL     MW15464   4.958   4.619   2.291  0.5299  0.4542  0.2464
 3867SOL     OW15465   4.078   2.327   0.801 -0.4633 -0.1704 -0.1100
 3867SOL    HW115466   4.026   2.402   0.828 -0.2569  0.7171 -2.0706
 3867SOL    HW215467   4.031   2.289   0.727  0.3122 -0.9449 -0.2378
 3867SOL     MW15468   4.066   2.332   0.795 -0.3376 -0.1559 -0.3773
 3868SOL     OW15469   0.567   1.536   3.785  0.1911 -0.0306 -0.1337
 3868SOL    HW115470   0.509   1.464   3.762  0.3193  0.0953 -0.8692
 3868SOL    HW215471   0.584   1.581   3.702  2.1401 -0.6643 -0.1305
 3868SOL     MW15472   0.562   1.533   3.771  0.4570 -0.0956 -0.2275
 3869SOL     OW15473   0.577   0.902   3.972  0.4610  0.3937 -0.2783
 3869SOL    HW115474   0.501   0.877   3.920  0.9369  2.4067 -2.0833
 3869SOL    HW215475   0.628   0.821   3.982  0.1014 -0.1792 -2.5678
 3869SOL     MW15476   0.574   0.889   3.967  0.4759  0.5780 -0.8024
 3870SOL     OW15477   5.432   1.882   2.446 -0.5980  0.2305  0.2048
 3870SOL    HW115478   5.375   1.809   2.473 -0.6712  0.2438  0.0867
 3870SOL    HW215479   5.448   1.931   2.527  0.4242 -0.5831  0.5213
 3870SOL     MW15480   5.427   1.879   2.460 -0.4765  0.1280  0.2302
 3871SOL     OW15481   4.289   2.413   3.607 -0.0310  0.3862  0.1339
 3871SOL    HW115482   4.348   2.351   3.650 -0.8045  0.1971  0.9452
 3871SOL    HW215483   4.343   2.491   3.594  1.0533 -0.5223 -1.1876
 3871SOL     MW15484   4.304   2.415   3.611  0.0088  0.2457  0.0686
 3872SOL     OW15485   0.209   1.706   3.722  0.1134 -0.1048  0.3580
 3872SOL    HW115486   0.117   1.730   3.712  0.1008 -0.5237 -0.5712
 3872SOL    HW215487   0.248   1.724   3.637  1.3597  1.9672  1.3021
 3872SOL     MW15488   0.202   1.712   3.710  0.2713  0.1068  0.3599
 3873SOL     OW15489   3.913   0.566   4.237  0.6412  0.4998 -0.3219
 3873SOL    HW115490   3.972   0.563   4.161  0.2825  0.4178 -0.6033
 3873SOL    HW215491   3.883   0.657   4.241 -1.2689  0.0075 -1.8048
 3873SOL     MW15492   3.916   0.577   4.228  0.3508  0.4263 -0.5478
 3874SOL     OW15493   4.291   2.386   4.667 -0.2216 -0.3881  0.5558
 3874SOL    HW115494   4.275   2.474   4.700  0.6155 -0.4590  1.1878
 3874SOL    HW215495   4.318   2.398   4.576  0.9413  0.1025  0.9467
 3874SOL     MW15496   4.292   2.399   4.660  0.0345 -0.3344  0.6868
 3875SOL     OW15497   0.566   0.900   5.244  0.6035  0.1053  0.0493
 3875SOL    HW115498   0.614   0.973   5.283  1.4181  0.1080 -0.9178
 3875SOL    HW215499   0.630   0.830   5.236  0.6132  0.2599 -1.7036
 3875SOL     MW15500   0.580   0.900   5.248  0.7091  0.1254 -0.2989
 3876SOL     OW15501   4.585   2.173   0.578  0.0293 -0.0730  0.3465
 3876SOL    HW115502   4.626   2.215   0.654 -0.0555 -0.6948  0.7489
 3876SOL    HW215503   4.649   2.184   0.508 -0.2151  1.1699  0.2974
 3876SOL     MW15504   4.598   2.179   0.579 -0.0128  0.0065  0.3917
 3877SOL     OW15505   5.207   3.555   3.290 -0.2067 -0.1485  0.4939
 3877SOL    HW115506   5.280   3.589   3.238 -0.2812 -0.5044  0.1536
 3877SOL    HW215507   5.248   3.492   3.349 -0.2064 -0.1820  0.4580
 3877SOL     MW15508   5.222   3.551   3.291 -0.2162 -0.1984  0.4457
 3878SOL     OW15509   5.033   0.056   4.965 -0.1798 -0.0233  0.3660
 3878SOL    HW115510   5.015  -0.019   4.909 -0.3500 -0.1042  0.5282
 3878SOL    HW215511   4.975   0.125   4.933  0.4377  0.2412 -0.1972
 3878SOL     MW15512   5.023   0.055   4.954 -0.1225  0.0002  0.3147
 3879SOL     OW15513   4.590   2.408   2.993  0.8348  0.0866 -0.0823
 3879SOL    HW115514   4.528   2.344   3.028 -0.5044  1.6147  0.4068
 3879SOL    HW215515   4.656   2.418   3.062  0.5809 -0.1226  0.1912
 3879SOL     MW15516   4.591   2.401   3.006  0.6308  0.2554  0.0153
 3880SOL     OW15517   3.206   2.084   2.690 -0.0271  0.0061 -0.4584
 3880SOL    HW115518   3.289   2.048   2.659  0.3461 -0.1570  0.6605
 3880SOL    HW215519   3.202   2.173   2.653 -0.2446 -0.6223 -2.0100
 3880SOL     MW15520   3.216   2.091   2.682 -0.0072 -0.0953 -0.5138
 3881SOL     OW15521   1.856   2.960   2.230 -0.2535  0.0407 -0.2703
 3881SOL    HW115522   1.833   3.049   2.204  1.3334  0.1100 -1.5855
 3881SOL    HW215523   1.935   2.970   2.284 -0.8581 -0.4795  0.7421
 3881SOL     MW15524   1.863   2.973   2.234 -0.1277 -0.0170 -0.3091
 3882SOL     OW15525   0.118   3.219   4.501  0.1926  0.2334 -0.7839
 3882SOL    HW115526   0.026   3.243   4.491  0.3200  0.8634 -0.5146
 3882SOL    HW215527   0.118   3.154   4.571  0.0797  1.1490  0.0809
 3882SOL     MW15528   0.106   3.214   4.509  0.1945  0.4312 -0.6387
 3883SOL     OW15529   3.426   2.894   0.112  0.2766  0.0500 -0.2408
 3883SOL    HW115530   3.344   2.867   0.070  0.2461  0.3202 -0.3560
 3883SOL    HW215531   3.424   2.852   0.198  0.0203  0.0506 -0.2460
 3883SOL     MW15532   3.415   2.885   0.118  0.2399  0.0847 -0.2562
 3884SOL     OW15533   4.259   2.648   4.720  0.0664  0.1643  0.1117
 3884SOL    HW115534   4.165   2.661   4.713  0.1536  0.1032 -1.5245
 3884SOL    HW215535   4.297   2.719   4.669  0.7662 -2.0665 -2.7028
 3884SOL     MW15536   4.252   2.659   4.713  0.1671 -0.1291 -0.4580
 3885SOL     OW15537   0.097   0.703   3.771 -0.1912  0.4220 -0.2669
 3885SOL    HW115538   0.080   0.795   3.789 -1.2689  0.4198 -1.1744
 3885SOL    HW215539   0.011   0.661   3.769  0.3260 -0.7701  0.8842
 3885SOL     MW15540   0.084   0.709   3.773 -0.2629  0.2691 -0.2357
 3886SOL     OW15541   1.924   2.991   4.730 -0.0173 -0.0991  0.2856
 3886SOL    HW115542   1.880   2.920   4.683 -0.8548  1.0398 -0.7150
 3886SOL    HW215543   1.857   3.060   4.737  0.6666  0.4679  1.5414
 3886SOL     MW15544   1.910   2.991   4.725 -0.0370  0.1192  0.3183
 3887SOL     OW15545   2.135   5.353   2.976 -0.1320  0.9595  0.0641
 3887SOL    HW115546   2.091   5.386   2.897  0.7634  2.5581  0.1894
 3887SOL    HW215547   2.228   5.350   2.951 -0.1093 -1.1863  0.1977
 3887SOL     MW15548   2.141   5.357   2.962 -0.0145  0.8895  0.0973
 3888SOL     OW15549   5.467   3.514   3.600  0.1668 -0.2228  0.2932
 3888SOL    HW115550   5.380   3.542   3.629 -0.2680 -0.7309 -0.5017
 3888SOL    HW215551   5.472   3.421   3.621 -0.0081 -0.5127 -0.8648
 3888SOL     MW15552   5.457   3.506   3.606  0.0888 -0.3250  0.0432
 3889SOL     OW15553   3.164   5.114   3.313 -1.0159  0.8662 -0.1875
 3889SOL    HW115554   3.168   5.019   3.320  2.3487  0.6163 -2.7767
 3889SOL    HW215555   3.130   5.130   3.225 -0.2114  1.9735 -0.3184
 3889SOL     MW15556   3.160   5.104   3.302 -0.4822  0.9760 -0.5357
 3890SOL     OW15557   4.478   5.453   2.665  0.4941 -0.1022  0.1033
 3890SOL    HW115558   4.452   5.388   2.731 -1.2475  0.1660 -0.2550
 3890SOL    HW215559   4.559   5.490   2.698 -0.4137  0.1484  2.2075
 3890SOL     MW15560   4.485   5.449   2.678  0.1549 -0.0358  0.3268
 3891SOL     OW15561   2.288   3.676   3.328  0.0400 -0.1570 -0.3533
 3891SOL    HW115562   2.287   3.691   3.234  0.6506 -1.1806 -0.5330
 3891SOL    HW215563   2.277   3.763   3.366 -1.9144  0.0844 -1.3567
 3891SOL     MW15564   2.287   3.689   3.321 -0.1320 -0.2571 -0.5047
 3892SOL     OW15565   3.770   1.839   5.315  0.4931  0.3004 -0.1028
 3892SOL    HW115566   3.681   1.854   5.283  1.0280 -1.7375 -3.0345
 3892SOL    HW215567   3.827   1.869   5.243  2.2092  1.3101  1.5832
 3892SOL     MW15568   3.766   1.845   5.302  0.7813  0.1688 -0.2622
 3893SOL     OW15569   2.274   2.623   5.370  0.3803  0.1203  0.0983
 3893SOL    HW115570   2.354   2.587   5.332  2.5033  0.5868  3.6576
 3893SOL    HW215571   2.259   2.570   5.448 -1.5688  1.4115  0.6729
 3893SOL     MW15572   2.282   2.611   5.375  0.4026  0.3454  0.6275
 3894SOL     OW15573   4.992   1.156   0.860  0.0953 -0.4934  0.0937
 3894SOL    HW115574   4.950   1.096   0.921 -0.5486 -0.1375  0.0056
 3894SOL    HW215575   4.935   1.159   0.784  0.6684 -0.5893 -0.3487
 3894SOL     MW15576   4.979   1.149   0.858  0.0863 -0.4601  0.0258
 3895SOL     OW15577   4.052   4.362   5.379 -0.2515 -0.2100  0.7517
 3895SOL    HW115578   4.098   4.444   5.391  0.1049 -0.4228  0.8536
 3895SOL    HW215579   4.032   4.359   5.286 -0.8031  0.2728  0.8473
 3895SOL     MW15580   4.055   4.372   5.369 -0.2765 -0.1754  0.7770
 3896SOL     OW15581   0.707   0.586   0.201  0.0406  0.5372 -0.0722
 3896SOL    HW115582   0.634   0.536   0.165 -0.0623  0.0677  0.7528
 3896SOL    HW215583   0.754   0.524   0.256  1.7254  0.5373 -1.4333
 3896SOL     MW15584   0.704   0.572   0.204  0.2431  0.4771 -0.1408
 3897SOL     OW15585   0.522   3.197   1.952  0.3442  0.4625  0.1912
 3897SOL    HW115586   0.618   3.196   1.956  0.4220  3.3661  3.7119
 3897SOL    HW215587   0.500   3.288   1.930 -1.6304 -0.0133  0.0503
 3897SOL     MW15588   0.532   3.209   1.950  0.1014  0.7733  0.6239
 3898SOL     OW15589   4.813   1.307   2.831  0.7024  0.2689 -0.2165
 3898SOL    HW115590   4.817   1.329   2.924  0.0313 -1.5272  0.2758
 3898SOL    HW215591   4.887   1.249   2.816  1.6101  1.6160 -1.1491
 3898SOL     MW15592   4.823   1.302   2.841  0.7327  0.2114 -0.2729
 3899SOL     OW15593   4.417   3.301   0.370  0.2306  0.4557  0.6041
 3899SOL    HW115594   4.437   3.280   0.461  1.4665  1.3449  0.5737
 3899SOL    HW215595   4.333   3.346   0.373 -1.1436 -1.9797  0.9466
 3899SOL     MW15596   4.409   3.304   0.382  0.2129  0.2578  0.6441
 3900SOL     OW15597   4.513   4.967   4.698  0.0317 -0.4914 -0.4734
 3900SOL    HW115598   4.427   4.992   4.732  0.6050 -0.8815  1.4199
 3900SOL    HW215599   4.537   5.037   4.638 -1.0207  0.3296  0.0274
 3900SOL     MW15600   4.505   4.979   4.695 -0.0296 -0.4363 -0.1669
 3901SOL     OW15601   0.221   0.557   2.962 -0.0904 -0.3170  0.2208
 3901SOL    HW115602   0.295   0.614   2.944  0.3720 -1.3139 -1.1708
 3901SOL    HW215603   0.205   0.511   2.880 -1.0815 -1.4757  1.0200
 3901SOL     MW15604   0.228   0.558   2.950 -0.1581 -0.5930  0.1450
 3902SOL     OW15605   3.984   1.603   0.410 -0.1683  0.4295 -0.3871
 3902SOL    HW115606   4.065   1.642   0.379  0.3387  0.7202  1.2344
 3902SOL    HW215607   3.987   1.513   0.379 -0.1417  0.9386 -1.9588
 3902SOL     MW15608   3.994   1.597   0.402 -0.1000  0.5319 -0.3807
 3903SOL     OW15609   2.464   2.909   2.318 -0.2632 -0.2978 -0.2499
 3903SOL    HW115610   2.488   2.819   2.339 -0.8410 -0.9139 -2.0317
 3903SOL    HW215611   2.450   2.951   2.403  2.8018 -1.0422  0.7338
 3903SOL     MW15612   2.465   2.903   2.332  0.0552 -0.4720 -0.3520
 3904SOL     OW15613   2.344   3.022   3.126  0.4058  0.0547 -0.1516
 3904SOL    HW115614   2.251   3.025   3.103  0.6616  0.7095 -1.1931
 3904SOL    HW215615   2.382   2.962   3.061  1.0687  1.5440 -1.1933
 3904SOL     MW15616   2.337   3.014   3.114  0.5234  0.3292 -0.4183
 3905SOL     OW15617   2.309   5.414   4.289 -0.6813  0.0795 -0.3487
 3905SOL    HW115618   2.346   5.397   4.203  4.0919 -1.4509  1.6182
 3905SOL    HW215619   2.270   5.331   4.316  0.2799 -0.2871 -0.0578
 3905SOL     MW15620   2.309   5.401   4.282  0.0528 -0.1633 -0.0597
 3906SOL     OW15621   0.574   4.343   4.104 -0.0652 -0.2935 -0.3997
 3906SOL    HW115622   0.622   4.295   4.037 -0.2806 -0.2969 -0.5506
 3906SOL    HW215623   0.637   4.407   4.137  0.0399 -0.2918 -0.6030
 3906SOL     MW15624   0.588   4.345   4.100 -0.0793 -0.2937 -0.4451
 3907SOL     OW15625   1.390   3.889   3.097  0.7862 -0.7445  0.3096
 3907SOL    HW115626   1.394   3.813   3.038  1.4394 -0.1231 -0.4732
 3907SOL    HW215627   1.300   3.889   3.129  0.5979 -1.4843 -0.1808
 3907SOL     MW15628   1.379   3.880   3.093  0.8457 -0.7597  0.1466
 3908SOL     OW15629   3.243   4.354   5.123 -0.4982 -0.4351  0.1580
 3908SOL    HW115630   3.299   4.332   5.197  0.8583 -0.1955 -0.7656
 3908SOL    HW215631   3.205   4.271   5.095 -0.9935 -0.5354  1.0648
 3908SOL     MW15632   3.245   4.341   5.129 -0.3880 -0.4173  0.1558
 3909SOL     OW15633   1.912   0.521   0.563 -0.0704  0.2361 -0.4756
 3909SOL    HW115634   1.861   0.473   0.498  2.6525 -3.6947 -0.0911
 3909SOL    HW215635   1.972   0.575   0.512 -1.0337  0.7752 -1.0517
 3909SOL     MW15636   1.913   0.522   0.548  0.1548 -0.1981 -0.5001
 3910SOL     OW15637   1.722   4.608   3.469  0.1930  0.4792 -0.0323
 3910SOL    HW115638   1.709   4.693   3.511 -0.5305  0.1576  0.4118
 3910SOL    HW215639   1.663   4.548   3.516 -0.7471  0.1373 -1.5713
 3910SOL     MW15640   1.713   4.611   3.480 -0.0199  0.3943 -0.1725
 3911SOL     OW15641   4.331   1.559   3.077 -0.3304  0.2116  0.5717
 3911SOL    HW115642   4.376   1.555   3.161  1.5741  0.1993 -0.4060
 3911SOL    HW215643   4.352   1.476   3.034 -2.1309 -0.2236  0.4617
 3911SOL     MW15644   4.339   1.548   3.082 -0.3171  0.1544  0.4325
 3912SOL     OW15645   1.024   4.923   0.114 -0.3202 -0.0544 -0.1372
 3912SOL    HW115646   1.048   4.902   0.204  0.3571  1.2497  0.0215
 3912SOL    HW215647   1.046   4.845   0.064  1.0301 -0.1547  0.5647
 3912SOL     MW15648   1.030   4.910   0.119 -0.0607  0.0997 -0.0270
 3913SOL     OW15649   0.977   5.045   4.516 -0.2304 -0.0401  0.2050
 3913SOL    HW115650   0.985   5.140   4.525  1.2886 -0.0449 -0.6311
 3913SOL    HW215651   0.963   5.032   4.422  1.0198 -0.6810  0.0843
 3913SOL     MW15652   0.976   5.056   4.505  0.1241 -0.1227  0.0825
 3914SOL     OW15653   1.043   1.151   3.678  0.2740  0.1644  0.3826
 3914SOL    HW115654   1.067   1.059   3.670 -0.3343 -0.1324  1.6867
 3914SOL    HW215655   1.006   1.175   3.593 -1.4366 -1.3628  0.6435
 3914SOL     MW15656   1.042   1.142   3.666 -0.0229 -0.0691  0.5829
 3915SOL     OW15657   4.244   4.367   3.665 -0.2289 -0.8162 -0.0083
 3915SOL    HW115658   4.322   4.326   3.628  0.4626  0.0854  0.4019
 3915SOL    HW215659   4.277   4.421   3.737 -1.3492 -1.1821  0.8097
 3915SOL     MW15660   4.258   4.369   3.670 -0.2838 -0.7477  0.1490
 3916SOL     OW15661   3.407   4.097   2.244  0.2329 -0.5489  0.3679
 3916SOL    HW115662   3.462   4.168   2.209 -1.2326  0.2972 -0.3293
 3916SOL    HW215663   3.470   4.035   2.281  1.6779  0.2440 -0.6012
 3916SOL     MW15664   3.422   4.098   2.244  0.2303 -0.3391  0.1546
 3917SOL     OW15665   0.038   2.264   2.594 -0.5773  0.1107  0.0141
 3917SOL    HW115666  -0.007   2.348   2.604 -0.6544  0.3752 -2.1095
 3917SOL    HW215667   0.111   2.268   2.655 -0.5497  1.7506 -0.0933
 3917SOL     MW15668   0.041   2.275   2.603 -0.5837  0.3545 -0.2715
 3918SOL     OW15669   5.101   2.534   2.098 -0.4626 -0.6242 -0.0575
 3918SOL    HW115670   5.080   2.556   2.190 -1.7353 -0.2225 -0.4146
 3918SOL    HW215671   5.147   2.611   2.066 -2.7785  0.6383 -0.6064
 3918SOL     MW15672   5.104   2.547   2.106 -0.9220 -0.4111 -0.1735
 3919SOL     OW15673   0.533   1.741   3.596 -0.5467  0.6347  0.4094
 3919SOL    HW115674   0.611   1.734   3.541 -0.6290  1.1929  0.2199
 3919SOL    HW215675   0.460   1.745   3.534 -0.8428 -1.0471  0.5934
 3919SOL     MW15676   0.533   1.741   3.581 -0.5951  0.4909  0.4087
 3920SOL     OW15677   1.556   3.587   0.408  0.2027 -0.4558  0.0786
 3920SOL    HW115678   1.533   3.669   0.366  0.7019 -1.7818 -3.0763
 3920SOL    HW215679   1.510   3.520   0.357  1.4191 -2.2859  1.2540
 3920SOL     MW15680   1.547   3.589   0.396  0.4224 -0.8598 -0.1748
 3921SOL     OW15681   1.303   2.728   3.096  0.2997  0.0227  0.1073
 3921SOL    HW115682   1.348   2.714   3.013 -2.4786 -3.6059 -1.0666
 3921SOL    HW215683   1.212   2.743   3.071 -0.4794 -0.3380  2.4865
 3921SOL     MW15684   1.297   2.728   3.082 -0.1557 -0.4880  0.2616
 3922SOL     OW15685   2.848   0.520   2.804 -0.0928  0.2275 -0.1155
 3922SOL    HW115686   2.814   0.600   2.764 -2.0224 -0.9309 -0.8879
 3922SOL    HW215687   2.812   0.520   2.893 -2.3747 -1.0708 -0.9789
 3922SOL     MW15688   2.839   0.531   2.811 -0.6319 -0.0870 -0.3249
 3923SOL     OW15689   4.847   1.878   0.536  0.1153 -0.0360  0.0731
 3923SOL    HW115690   4.759   1.883   0.498  0.2925  1.5045 -0.1729
 3923SOL    HW215691   4.836   1.823   0.614 -0.8284 -0.8153 -0.5791
 3923SOL     MW15692   4.834   1.871   0.541  0.0172  0.0614 -0.0419
 3924SOL     OW15693   2.061   2.233   1.401  0.1895  0.5427 -0.4843
 3924SOL    HW115694   2.000   2.198   1.336 -0.4483  1.9524 -0.6872
 3924SOL    HW215695   2.140   2.253   1.352 -0.2101  1.3890 -0.7969
 3924SOL     MW15696   2.063   2.231   1.386  0.0567  0.8315 -0.5503
 3925SOL     OW15697   4.363   0.287   3.374  0.1746 -0.5564 -0.3928
 3925SOL    HW115698   4.288   0.251   3.421  1.3366  0.5084  2.4541
 3925SOL    HW215699   4.324   0.330   3.298 -2.0242 -0.6878  0.5638
 3925SOL     MW15700   4.348   0.288   3.370  0.0418 -0.4369  0.0941
 3926SOL     OW15701   4.905   3.238   0.084  0.1927 -0.2409 -0.4577
 3926SOL    HW115702   4.870   3.192   0.161 -0.4500 -0.7593 -1.0401
 3926SOL    HW215703   4.954   3.171   0.037  0.7290  0.1195 -0.4185
 3926SOL     MW15704   4.907   3.223   0.088  0.1790 -0.2611 -0.5272
 3927SOL     OW15705   2.197   0.757   4.245  0.5435 -0.1376  0.2427
 3927SOL    HW115706   2.245   0.776   4.165 -0.0768 -0.0841 -0.1175
 3927SOL    HW215707   2.159   0.670   4.230  1.3154 -0.6121  0.9063
 3927SOL     MW15708   2.198   0.748   4.233  0.5629 -0.1915  0.2816
 3928SOL     OW15709   1.896   1.153   3.025 -0.1170  0.0368 -0.1934
 3928SOL    HW115710   1.958   1.207   2.977  0.9852  0.3683  1.5011
 3928SOL    HW215711   1.839   1.216   3.070 -1.2672 -0.2643 -1.1834
 3928SOL     MW15712   1.897   1.168   3.025 -0.1231  0.0407 -0.1032
 3929SOL     OW15713   0.880   0.728   4.252  0.2263  0.3279 -0.1978
 3929SOL    HW115714   0.840   0.655   4.205 -0.7102  1.0284 -0.5307
 3929SOL    HW215715   0.943   0.688   4.312  0.2052 -0.6943 -0.8445
 3929SOL     MW15716   0.883   0.714   4.253  0.1037  0.2867 -0.3232
 3930SOL     OW15717   3.864   3.096   4.182  0.2171 -0.3696 -0.2012
 3930SOL    HW115718   3.862   3.137   4.268 -0.3501 -0.3634 -0.2129
 3930SOL    HW215719   3.837   3.165   4.121 -0.6258 -0.7124 -0.2330
 3930SOL     MW15720   3.860   3.110   4.185  0.0366 -0.4127 -0.2067
 3931SOL     OW15721   1.625   4.665   1.930 -0.2474  0.6651 -0.0999
 3931SOL    HW115722   1.660   4.626   1.850  0.9322  0.2426  0.5980
 3931SOL    HW215723   1.689   4.643   1.998 -1.7215  0.1098  1.1776
 3931SOL     MW15724   1.638   4.657   1.929 -0.2851  0.5399  0.1530
 3932SOL     OW15725   1.873   0.696   2.575 -0.0512  0.1024  0.2771
 3932SOL    HW115726   1.888   0.611   2.533  0.0310  0.9449 -1.4585
 3932SOL    HW215727   1.847   0.754   2.504 -0.3970  1.4850  1.4833
 3932SOL     MW15728   1.871   0.693   2.561 -0.0849  0.3873  0.2093
 3933SOL     OW15729   1.038   2.022   3.571 -0.1335 -0.0125 -0.8326
 3933SOL    HW115730   1.038   2.068   3.487  1.5600  0.2813 -0.6921
 3933SOL    HW215731   0.963   2.059   3.617 -0.5111  0.5227 -1.8327
 3933SOL     MW15732   1.028   2.033   3.566  0.0349  0.0936 -0.9426
 3934SOL     OW15733   4.370   1.931   4.523  0.1594 -0.4614 -0.3250
 3934SOL    HW115734   4.312   2.007   4.528  0.2624 -0.3855 -0.2670
 3934SOL    HW215735   4.439   1.958   4.462 -0.4709 -0.9599 -1.2670
 3934SOL     MW15736   4.372   1.944   4.516  0.0919 -0.5155 -0.4382
 3935SOL     OW15737   0.521   0.335   2.081 -0.1579 -0.4303  0.1045
 3935SOL    HW115738   0.594   0.280   2.050  0.5128  1.0693 -1.1139
 3935SOL    HW215739   0.563   0.418   2.106 -1.5148  0.8086 -1.5243
 3935SOL     MW15740   0.536   0.339   2.080 -0.2458 -0.0797 -0.2600
 3936SOL     OW15741   2.149   1.672   1.613 -0.2718  0.3083  0.5920
 3936SOL    HW115742   2.117   1.746   1.562 -1.1356 -0.1101  0.5008
 3936SOL    HW215743   2.222   1.637   1.561 -0.8187  0.1872 -0.1125
 3936SOL     MW15744   2.154   1.677   1.600 -0.4524  0.2392  0.4902
 3937SOL     OW15745   4.585   2.217   0.852  0.3072 -0.2816 -0.2213
 3937SOL    HW115746   4.502   2.170   0.849  0.5109 -0.6391 -0.2398
 3937SOL    HW215747   4.631   2.182   0.927  0.7411 -0.5886 -0.6247
 3937SOL     MW15748   4.580   2.207   0.861  0.3888 -0.3667 -0.2753
 3938SOL     OW15749   4.586   1.318   4.916  0.4516 -0.4537  0.0559
 3938SOL    HW115750   4.611   1.396   4.866  0.1016 -0.8464 -0.7596
 3938SOL    HW215751   4.494   1.330   4.936  0.4356 -0.5850  0.0656
 3938SOL     MW15752   4.578   1.329   4.912  0.4048 -0.5208 -0.0473
 3939SOL     OW15753   4.843   0.047   4.331 -0.0000 -0.8596  0.2545
 3939SOL    HW115754   4.878  -0.039   4.306  0.8582 -0.2420 -0.7944
 3939SOL    HW215755   4.916   0.108   4.314 -1.5890  0.5183 -2.1986
 3939SOL     MW15756   4.857   0.044   4.326 -0.0936 -0.6042 -0.1938
 3940SOL     OW15757   2.036   3.713   0.886  0.1425  0.0054 -0.7046
 3940SOL    HW115758   1.973   3.721   0.957 -0.6250 -0.7826 -1.2698
 3940SOL    HW215759   2.121   3.710   0.929 -0.2359  0.6239  0.0993
 3940SOL     MW15760   2.039   3.713   0.901 -0.0042 -0.0163 -0.6740
 3941SOL     OW15761   4.586   1.150   0.516  0.2939 -0.3405  0.5443
 3941SOL    HW115762   4.534   1.097   0.577  0.1953 -1.1176 -0.1990
 3941SOL    HW215763   4.636   1.087   0.465 -0.2212  0.2411 -0.7238
 3941SOL     MW15764   4.585   1.135   0.518  0.2154 -0.3655  0.2868
 3942SOL     OW15765   3.567   4.170   4.510  0.3647 -0.2721 -0.3696
 3942SOL    HW115766   3.528   4.239   4.456  1.2640  0.6094  0.0594
 3942SOL    HW215767   3.495   4.134   4.560 -0.1923  0.0790 -0.9090
 3942SOL     MW15768   3.553   4.174   4.509  0.4085 -0.1143 -0.3837
 3943SOL     OW15769   3.119   3.760   3.030 -0.7392  0.0752  0.1824
 3943SOL    HW115770   3.067   3.717   3.098  1.3259 -2.7252  0.1611
 3943SOL    HW215771   3.208   3.763   3.066 -0.4128  2.8145 -0.6065
 3943SOL     MW15772   3.124   3.755   3.044 -0.4330  0.0674  0.0787
 3944SOL     OW15773   1.859   3.825   2.524 -0.7477 -0.4823  0.0845
 3944SOL    HW115774   1.809   3.842   2.604 -1.4901 -2.5440  0.1243
 3944SOL    HW215775   1.907   3.745   2.542 -0.7674 -0.8813 -1.4598
 3944SOL     MW15776   1.859   3.817   2.537 -0.8453 -0.7973 -0.1081
 3945SOL     OW15777   3.615   1.569   0.250 -0.5111 -0.6876  0.4296
 3945SOL    HW115778   3.522   1.547   0.249 -0.3919 -1.2266 -0.7112
 3945SOL    HW215779   3.626   1.625   0.327 -2.0481  0.6273 -0.2667
 3945SOL     MW15780   3.605   1.573   0.260 -0.6926 -0.5883  0.1944
 3946SOL     OW15781   4.881   4.668   5.003  0.2355 -0.1944  0.0174
 3946SOL    HW115782   4.804   4.712   4.968  0.4433  0.1049 -0.0675
 3946SOL    HW215783   4.954   4.703   4.953  0.4045 -0.6458 -0.0556
 3946SOL     MW15784   4.880   4.678   4.992  0.2837 -0.2138 -0.0028
 3947SOL     OW15785   1.147   3.859   1.634 -0.2236 -0.1146  0.1419
 3947SOL    HW115786   1.127   3.949   1.608  0.2625  0.1283  0.5786
 3947SOL    HW215787   1.201   3.825   1.563 -1.2290 -0.4031 -0.5034
 3947SOL     MW15788   1.152   3.866   1.622 -0.2901 -0.1205  0.1152
 3948SOL     OW15789   3.416   3.646   0.325 -0.1632  0.3773 -0.4930
 3948SOL    HW115790   3.399   3.663   0.418  2.0710 -0.5877  0.1433
 3948SOL    HW215791   3.431   3.733   0.288  0.6211  0.6513  0.4271
 3948SOL     MW15792   3.415   3.660   0.332  0.2232  0.2888 -0.2938
 3949SOL     OW15793   2.533   1.319   0.579  0.0786 -0.2130 -0.2767
 3949SOL    HW115794   2.572   1.351   0.498 -1.9207  3.2157 -0.0747
 3949SOL    HW215795   2.439   1.312   0.560 -0.6685  2.0929  2.0307
 3949SOL     MW15796   2.526   1.322   0.566 -0.2730  0.5211  0.0445
 3950SOL     OW15797   5.313   0.721   5.467  0.2071  0.0211 -0.2245
 3950SOL    HW115798   5.238   0.763   5.425  0.0491  0.0069  0.0386
 3950SOL    HW215799   5.368   0.691   5.395 -0.0223  0.0694 -0.4185
 3950SOL     MW15800   5.310   0.722   5.453  0.1575  0.0254 -0.2156
 3951SOL     OW15801   4.525   5.257   0.157 -0.0736 -0.1693  0.1500
 3951SOL    HW115802   4.590   5.187   0.172 -0.0431 -0.0224  0.7068
 3951SOL    HW215803   4.531   5.312   0.235 -0.0182  0.5254 -0.3410
 3951SOL     MW15804   4.534   5.255   0.169 -0.0626 -0.0616  0.1584
 3952SOL     OW15805   1.684   3.455   0.960 -0.3024  0.2583  0.1993
 3952SOL    HW115806   1.720   3.396   0.894  0.2755 -0.6969  1.3271
 3952SOL    HW215807   1.591   3.433   0.965 -0.0878 -0.5781  0.6184
 3952SOL     MW15808   1.677   3.445   0.952 -0.2009  0.0290  0.3973
 3953SOL     OW15809   4.392   4.289   4.070  0.0599  0.1587  0.1428
 3953SOL    HW115810   4.473   4.305   4.118  0.5845  0.5151 -0.8457
 3953SOL    HW215811   4.328   4.266   4.138  0.6788  1.0730  1.0546
 3953SOL     MW15812   4.394   4.288   4.085  0.2063  0.3213  0.1330
 3954SOL     OW15813   3.562   3.808   1.582  0.0592  0.0169 -0.9963
 3954SOL    HW115814   3.477   3.826   1.543  0.0748  0.4420 -0.8407
 3954SOL    HW215815   3.626   3.849   1.523 -0.0832  3.6883  1.1296
 3954SOL     MW15816   3.560   3.815   1.570  0.0430  0.5413 -0.7043
 3955SOL     OW15817   2.056   4.812   3.100  0.1400 -0.2115  0.2575
 3955SOL    HW115818   1.963   4.793   3.107  0.0624  0.2479  0.5755
 3955SOL    HW215819   2.072   4.822   3.007 -0.5071  1.4174  0.2716
 3955SOL     MW15820   2.046   4.811   3.089  0.0472  0.0558  0.3000
 3956SOL     OW15821   4.756   2.225   0.350  0.0563  0.0159 -0.2426
 3956SOL    HW115822   4.774   2.151   0.292  0.3209  0.6204 -0.9570
 3956SOL    HW215823   4.822   2.290   0.326  0.4326  0.1215  1.0467
 3956SOL     MW15824   4.767   2.224   0.339  0.1383  0.1068 -0.1690
 3957SOL     OW15825   4.998   2.126   0.857  0.4434  0.8530 -0.0304
 3957SOL    HW115826   4.962   2.152   0.772 -1.0028  0.9304  0.5712
 3957SOL    HW215827   5.015   2.208   0.902  0.5758  0.8002  0.0174
 3957SOL     MW15828   4.996   2.140   0.852  0.2752  0.8561  0.0527
 3958SOL     OW15829   0.714   2.730   2.520 -0.4837 -0.4573  0.0481
 3958SOL    HW115830   0.726   2.644   2.479  1.7270  0.6562 -1.8630
 3958SOL    HW215831   0.622   2.731   2.548 -1.0031 -2.8280 -1.3152
 3958SOL     MW15832   0.704   2.719   2.519 -0.2672 -0.6183 -0.3711
 3959SOL     OW15833   0.217   0.814   1.842  0.0266 -0.2171  0.1732
 3959SOL    HW115834   0.146   0.815   1.906  0.6345 -0.2941  0.8591
 3959SOL    HW215835   0.179   0.773   1.764 -0.8012  0.1443  0.3842
 3959SOL     MW15836   0.203   0.809   1.840 -0.0015 -0.1807  0.2880
 3960SOL     OW15837   1.887   0.991   1.114 -0.6879 -0.1417  0.8374
 3960SOL    HW115838   1.819   1.056   1.134 -1.4034 -1.4409  2.9384
 3960SOL    HW215839   1.839   0.913   1.088 -0.0812 -1.2830  2.9628
 3960SOL     MW15840   1.872   0.989   1.113 -0.7018 -0.4541  1.3784
 3961SOL     OW15841   1.393   4.953   0.263 -0.4458  0.1888  0.1042
 3961SOL    HW115842   1.372   4.974   0.172 -0.3636 -1.1030 -0.2349
 3961SOL    HW215843   1.486   4.974   0.272 -0.1804 -0.6973 -0.4396
 3961SOL     MW15844   1.402   4.959   0.253 -0.4013 -0.0900 -0.0088
 3962SOL     OW15845   2.911   1.550   1.663  0.1671  0.1074  0.3184
 3962SOL    HW115846   3.004   1.534   1.648  0.5443  1.1039  1.4036
 3962SOL    HW215847   2.907   1.641   1.695 -1.3596  0.6665 -1.2935
 3962SOL     MW15848   2.922   1.560   1.665  0.0199  0.3065  0.2510
 3963SOL     OW15849   4.962   2.836   4.749 -0.4660 -0.5041 -0.4622
 3963SOL    HW115850   4.952   2.840   4.844  0.9206  0.0959 -0.3167
 3963SOL    HW215851   5.008   2.754   4.733  2.4695  0.9537 -0.2329
 3963SOL     MW15852   4.967   2.826   4.759  0.0873 -0.2407 -0.4142
 3964SOL     OW15853   5.220   4.970   2.023 -0.6004 -0.1532 -0.1138
 3964SOL    HW115854   5.141   4.960   2.076 -0.5460 -1.2877 -0.2353
 3964SOL    HW215855   5.289   4.928   2.075 -0.1906  0.3000 -0.2798
 3964SOL     MW15856   5.219   4.963   2.037 -0.5410 -0.2404 -0.1506
 3965SOL     OW15857   0.040   5.008   0.807  0.0696 -0.1710 -0.7917
 3965SOL    HW115858   0.057   5.065   0.732  0.4044 -1.3141 -1.6089
 3965SOL    HW215859  -0.055   5.015   0.821  0.1312  0.7351 -0.7333
 3965SOL     MW15860   0.030   5.016   0.799  0.1203 -0.2013 -0.8888
 3966SOL     OW15861   2.080   1.119   1.718 -0.1458  0.0748  0.1445
 3966SOL    HW115862   2.152   1.056   1.711 -0.4086 -0.3105  0.9037
 3966SOL    HW215863   2.037   1.114   1.633 -0.1742 -0.7829  0.2031
 3966SOL     MW15864   2.084   1.111   1.706 -0.1831 -0.0844  0.2492
 3967SOL     OW15865   1.681   0.709   2.207  0.2950 -0.1690 -0.0898
 3967SOL    HW115866   1.614   0.701   2.139 -0.0814  0.5526  0.1922
 3967SOL    HW215867   1.758   0.666   2.169 -0.2834 -0.9194 -0.4575
 3967SOL     MW15868   1.682   0.702   2.193  0.1728 -0.1727 -0.1008
 3968SOL     OW15869   3.070   3.247   0.382  0.2639  0.2875  0.0242
 3968SOL    HW115870   3.128   3.186   0.336  1.9525  1.7763  0.0875
 3968SOL    HW215871   3.127   3.317   0.413 -1.7328  2.4985 -0.9515
 3968SOL     MW15872   3.084   3.248   0.380  0.2245  0.7612 -0.0926
 3969SOL     OW15873   2.398   2.442   5.147 -0.4508  0.3768  0.5117
 3969SOL    HW115874   2.488   2.434   5.117 -0.4890 -1.4638  0.7886
 3969SOL    HW215875   2.357   2.502   5.084  0.2821 -0.8658 -1.2237
 3969SOL     MW15876   2.404   2.449   5.135 -0.3618 -0.0179  0.3250
 3970SOL     OW15877   2.301   1.327   4.929  0.2321 -0.0056  0.1148
 3970SOL    HW115878   2.338   1.311   5.016 -0.7832 -0.7934  0.4175
 3970SOL    HW215879   2.261   1.414   4.935  0.8035  0.2570  0.1994
 3970SOL     MW15880   2.301   1.336   4.941  0.1753 -0.0728  0.1643
 3971SOL     OW15881   2.909   3.275   2.939  0.4104  0.6779 -0.2670
 3971SOL    HW115882   2.993   3.231   2.950  0.0129 -0.0218 -0.0018
 3971SOL    HW215883   2.905   3.336   3.013 -0.7472 -1.6150  1.6610
 3971SOL     MW15884   2.920   3.277   2.950  0.2113  0.2948  0.0137
 3972SOL     OW15885   1.238   5.300   2.267 -0.7858 -0.3257 -0.0434
 3972SOL    HW115886   1.209   5.326   2.180 -0.6318  0.9358  0.2615
 3972SOL    HW215887   1.158   5.294   2.319 -0.8356 -0.6358 -0.1531
 3972SOL     MW15888   1.224   5.303   2.263 -0.7725 -0.2039 -0.0184
 3973SOL     OW15889   5.087   4.991   4.095 -0.4891  0.5475 -0.3466
 3973SOL    HW115890   5.176   5.016   4.118  0.1837 -0.4352 -1.7672
 3973SOL    HW215891   5.033   5.023   4.168  0.9131  1.8069  0.1696
 3973SOL     MW15892   5.091   4.998   4.108 -0.2235  0.5829 -0.4624
 3974SOL     OW15893   1.664   4.271   0.107 -0.2504  0.3034 -0.0930
 3974SOL    HW115894   1.664   4.367   0.107 -2.1349  0.3355 -0.9327
 3974SOL    HW215895   1.572   4.247   0.115  0.2557 -1.4587  0.7103
 3974SOL     MW15896   1.653   4.280   0.108 -0.4269  0.0820 -0.0976
 3975SOL     OW15897   1.844   3.794   1.108  0.1572 -0.0430 -0.0766
 3975SOL    HW115898   1.800   3.878   1.121  0.1981  0.0523 -0.5193
 3975SOL    HW215899   1.805   3.735   1.173  0.2892  0.3780  0.3840
 3975SOL     MW15900   1.834   3.797   1.118  0.1794  0.0231 -0.0743
 3976SOL     OW15901   4.563   4.985   3.893  0.8602  0.1343  0.1063
 3976SOL    HW115902   4.513   4.910   3.861 -2.2037  1.3587  1.6423
 3976SOL    HW215903   4.623   4.949   3.958 -0.5926 -1.0253  0.8546
 3976SOL     MW15904   4.564   4.971   3.897  0.2820  0.1426  0.3987
 3977SOL     OW15905   4.678   3.609   3.210  0.4260 -0.2402  0.4642
 3977SOL    HW115906   4.772   3.589   3.205  0.8397  1.3249  1.2381
 3977SOL    HW215907   4.642   3.539   3.264  1.1083 -0.9564  0.0227
 3977SOL     MW15908   4.686   3.597   3.216  0.5663 -0.1315  0.5068
 3978SOL     OW15909   0.137   0.197   5.312  0.1376  0.0022 -0.5323
 3978SOL    HW115910   0.048   0.206   5.348  1.0601 -1.3037  2.3503
 3978SOL    HW215911   0.164   0.109   5.337  2.9863  1.0649  0.4808
 3978SOL     MW15912   0.129   0.187   5.320  0.6204 -0.0289 -0.0336
 3979SOL     OW15913   4.442   1.018   0.061 -0.3287 -0.2239  0.1362
 3979SOL    HW115914   4.428   1.047  -0.029 -0.6494 -0.0436  0.2433
 3979SOL    HW215915   4.523   0.967   0.058 -1.8845 -2.8921 -0.8965
 3979SOL     MW15916   4.451   1.015   0.049 -0.5689 -0.5424  0.0177
 3980SOL     OW15917   5.439   1.553   4.942  0.0469 -0.0201  0.0772
 3980SOL    HW115918   5.401   1.544   5.029  1.0852 -1.9486  0.3874
 3980SOL    HW215919   5.383   1.500   4.885  1.3989 -1.7770  0.2945
 3980SOL     MW15920   5.427   1.545   4.946  0.3529 -0.4919  0.1447
 3981SOL     OW15921   3.830   3.944   2.420  0.3978  0.0805  0.1460
 3981SOL    HW115922   3.901   4.008   2.415 -0.5940  1.1007 -1.4568
 3981SOL    HW215923   3.838   3.892   2.340  1.1013 -1.7632  1.3518
 3981SOL     MW15924   3.840   3.945   2.409  0.3609 -0.0249  0.0952
 3982SOL     OW15925   1.299   3.623   1.096  0.7133  0.0307 -0.5480
 3982SOL    HW115926   1.330   3.713   1.085  0.4461  0.4128  1.4408
 3982SOL    HW215927   1.343   3.592   1.175  0.1021 -1.2740 -0.6954
 3982SOL     MW15928   1.309   3.630   1.105  0.6009 -0.0874 -0.3123
 3983SOL     OW15929   5.038   4.687   3.220  0.2682 -0.2134 -0.2286
 3983SOL    HW115930   5.113   4.627   3.220  0.1110 -0.4167  0.0599
 3983SOL    HW215931   5.000   4.677   3.308 -0.7172 -0.9020 -0.7121
 3983SOL     MW15932   5.043   4.678   3.231  0.1219 -0.3275 -0.2536
 3984SOL     OW15933   3.178   2.283   0.234  0.2957  0.2904 -0.0164
 3984SOL    HW115934   3.263   2.244   0.217 -0.4865 -0.9017 -1.4622
 3984SOL    HW215935   3.190   2.334   0.315  2.3795  0.2719 -0.2655
 3984SOL     MW15936   3.190   2.285   0.242  0.4623  0.1354 -0.2334
 3985SOL     OW15937   1.492   2.131   1.827  0.7475  0.2470  0.1870
 3985SOL    HW115938   1.412   2.163   1.786  0.4397  0.9726  1.2955
 3985SOL    HW215939   1.466   2.047   1.866  0.5533  0.3998  0.3984
 3985SOL     MW15940   1.478   2.124   1.827  0.6833  0.3594  0.3560
 3986SOL     OW15941   1.018   2.128   3.332  0.0842  0.3698 -0.0159
 3986SOL    HW115942   0.971   2.072   3.270  0.8751  0.3943 -0.6513
 3986SOL    HW215943   0.965   2.208   3.336  0.5571  0.7978 -1.4854
 3986SOL     MW15944   1.005   2.131   3.324  0.2460  0.4277 -0.2853
 3987SOL     OW15945   4.915   5.468   1.610  0.6098  0.3628  0.3591
 3987SOL    HW115946   4.835   5.464   1.558 -0.1301 -0.1156  1.4830
 3987SOL    HW215947   4.949   5.379   1.610  0.6403  0.3716  0.6215
 3987SOL     MW15948   4.909   5.456   1.603  0.5190  0.3027  0.5366
 3988SOL     OW15949   0.420   4.967   0.387 -0.1421  0.1204  0.0678
 3988SOL    HW115950   0.416   4.966   0.483  1.3811  2.1745  0.2016
 3988SOL    HW215951   0.480   4.896   0.365 -0.2926 -0.1894  0.6304
 3988SOL     MW15952   0.427   4.958   0.396  0.0337  0.3437  0.1569
 3989SOL     OW15953   0.871   3.133   2.586  0.2514  0.2776 -0.3651
 3989SOL    HW115954   0.874   3.143   2.491 -1.1191  1.8698 -0.2860
 3989SOL    HW215955   0.958   3.099   2.609  1.1722  1.3784 -2.0209
 3989SOL     MW15956   0.882   3.130   2.577  0.1938  0.6223 -0.5669
 3990SOL     OW15957   1.336   5.241   5.110 -0.3651 -0.1352  0.2018
 3990SOL    HW115958   1.285   5.323   5.105 -0.4677 -0.2327 -0.5816
 3990SOL    HW215959   1.282   5.177   5.064  0.5567 -0.1868 -0.8534
 3990SOL     MW15960   1.322   5.244   5.103 -0.2602 -0.1543 -0.0335
 3991SOL     OW15961   0.380   4.576   4.373  0.6094  0.1056  0.1211
 3991SOL    HW115962   0.333   4.593   4.455 -0.7102 -0.6319 -0.4631
 3991SOL    HW215963   0.467   4.614   4.388  0.3469  0.1403  1.7944
 3991SOL     MW15964   0.386   4.583   4.385  0.4069  0.0156  0.2605
 3992SOL     OW15965   5.086   3.804   4.399 -0.1680 -0.2638  0.3212
 3992SOL    HW115966   5.034   3.866   4.348  0.9127 -0.4906 -1.1345
 3992SOL    HW215967   5.028   3.729   4.411 -0.3067 -0.4022 -1.0270
 3992SOL     MW15968   5.072   3.802   4.394 -0.0474 -0.3106 -0.0377
 3993SOL     OW15969   0.845   4.760   1.691  0.3775  0.2915 -0.1629
 3993SOL    HW115970   0.776   4.739   1.754  1.1924 -2.1501  0.0119
 3993SOL    HW215971   0.884   4.840   1.725 -0.8056  0.3973  1.0600
 3993SOL     MW15972   0.841   4.767   1.703  0.3304 -0.0075  0.0160
 3994SOL     OW15973   2.615   2.160   1.846  0.6169  0.3018 -0.4728
 3994SOL    HW115974   2.545   2.134   1.786  0.0812  0.3804  0.1167
 3994SOL    HW215975   2.689   2.181   1.788  0.2294  0.0052 -1.0852
 3994SOL     MW15976   2.615   2.160   1.831  0.4987  0.2739 -0.4757
 3995SOL     OW15977   1.419   0.287   3.117 -0.2511 -0.0720 -0.5230
 3995SOL    HW115978   1.447   0.363   3.066  0.4225 -1.5034 -2.3965
 3995SOL    HW215979   1.338   0.259   3.076 -0.7708 -0.0829  0.4841
 3995SOL     MW15980   1.412   0.293   3.106 -0.2314 -0.2566 -0.6339
 3996SOL     OW15981   5.261   2.419   4.140  0.0825  0.0469  0.1109
 3996SOL    HW115982   5.176   2.443   4.176 -1.4987 -2.2855 -1.7498
 3996SOL    HW215983   5.270   2.326   4.157  2.2630  0.2085  0.1641
 3996SOL     MW15984   5.251   2.410   4.147  0.1592 -0.2310 -0.1205
 3997SOL     OW15985   4.064   1.076   1.864 -0.3434  0.7571  0.1991
 3997SOL    HW115986   4.122   1.137   1.908  0.1292  0.3608  0.1307
 3997SOL    HW215987   3.982   1.124   1.855 -0.2226  1.0992  0.8479
 3997SOL     MW15988   4.061   1.090   1.868 -0.2674  0.7502  0.2734
 3998SOL     OW15989   2.525   2.557   4.417  0.0705 -0.7069  0.4288
 3998SOL    HW115990   2.581   2.507   4.477  0.8261  0.2598  0.5497
 3998SOL    HW215991   2.529   2.509   4.335  0.4875 -1.0472  0.6459
 3998SOL     MW15992   2.532   2.544   4.414  0.2206 -0.6267  0.4720
 3999SOL     OW15993   4.441   2.044   2.676  0.6789  0.0897 -0.2874
 3999SOL    HW115994   4.500   2.119   2.688  0.3707  0.3413 -0.3431
 3999SOL    HW215995   4.497   1.976   2.638  1.6085 -0.6009  2.1112
 3999SOL     MW15996   4.456   2.045   2.673  0.7585  0.0335  0.0125
 4000SOL     OW15997   3.702   0.343   0.367 -0.0205  0.3795  0.4653
 4000SOL    HW115998   3.768   0.374   0.305  0.1826 -0.8534  0.0430
 4000SOL    HW215999   3.643   0.290   0.314 -0.6797  0.5005  1.0668
 4000SOL     MW16000   3.703   0.340   0.352 -0.0789  0.2371  0.4882
 4001SOL     OW16001   3.877   0.740   2.366  0.3259  0.4102 -0.3921
 4001SOL    HW116002   3.968   0.715   2.383  0.0521  0.4985  1.4151
 4001SOL    HW216003   3.829   0.657   2.366  0.2289  0.4672 -0.1148
 4001SOL     MW16004   3.883   0.726   2.368  0.2785  0.4288 -0.1253
 4002SOL     OW16005   0.627   2.409   2.180 -0.3209 -0.2866  0.3342
 4002SOL    HW116006   0.638   2.427   2.087 -0.2061 -1.0741  0.1883
 4002SOL    HW216007   0.537   2.378   2.188 -0.5577  0.4396  0.6028
 4002SOL     MW16008   0.617   2.407   2.169 -0.3365 -0.2944  0.3499
 4003SOL     OW16009   2.939   2.550   0.234  0.2908  0.5394  0.2273
 4003SOL    HW116010   2.889   2.619   0.190 -0.4581  0.5515  1.0516
 4003SOL    HW216011   3.030   2.571   0.217  0.0457  1.1879 -0.3286
 4003SOL     MW16012   2.944   2.561   0.226  0.1636  0.6239  0.2616
 4004SOL     OW16013   3.814   4.471   3.805  0.4018  0.2450 -0.2863
 4004SOL    HW116014   3.886   4.451   3.866  0.2846  0.1820 -0.1700
 4004SOL    HW216015   3.857   4.477   3.720  0.5048 -0.0602 -0.2569
 4004SOL     MW16016   3.829   4.469   3.802  0.3999  0.1979 -0.2677
 4005SOL     OW16017   3.563   4.497   0.304 -0.2351  0.6556  0.0834
 4005SOL    HW116018   3.655   4.489   0.327 -0.1878  0.0953 -0.2896
 4005SOL    HW216019   3.524   4.413   0.328 -0.8939  1.2685  1.2873
 4005SOL     MW16020   3.569   4.485   0.310 -0.3134  0.6623  0.1898
 4006SOL     OW16021   4.875   3.587   0.298 -0.3762 -0.5905 -0.3317
 4006SOL    HW116022   4.793   3.542   0.319 -0.7663 -0.2237 -1.0167
 4006SOL    HW216023   4.866   3.612   0.206  1.0581 -1.6786 -0.7991
 4006SOL     MW16024   4.863   3.584   0.289 -0.2426 -0.6829 -0.4793
 4007SOL     OW16025   5.165   4.849   5.232  0.3546 -0.2821 -0.6792
 4007SOL    HW116026   5.069   4.856   5.229  0.3098  0.3621  1.1597
 4007SOL    HW216027   5.181   4.765   5.275  0.6202 -0.3492 -0.9071
 4007SOL     MW16028   5.155   4.839   5.237  0.3828 -0.2082 -0.4730
 4008SOL     OW16029   2.699   3.217   0.242 -0.1318  0.0684 -0.0931
 4008SOL    HW116030   2.710   3.221   0.337 -0.6105  0.7557 -0.0585
 4008SOL    HW216031   2.604   3.222   0.229 -0.3504 -3.1616 -0.4693
 4008SOL     MW16032   2.688   3.218   0.252 -0.2211 -0.2571 -0.1369
 4009SOL     OW16033   0.237   3.455   4.475 -0.4057 -0.3035 -0.0680
 4009SOL    HW116034   0.210   3.365   4.492  1.4805 -0.9559 -0.3882
 4009SOL    HW216035   0.187   3.481   4.397 -0.7384 -1.1532 -0.1447
 4009SOL     MW16036   0.227   3.447   4.467 -0.2068 -0.4958 -0.1188
 4010SOL     OW16037   0.695   1.600   2.072  0.4127 -0.6416  0.4084
 4010SOL    HW116038   0.634   1.604   2.145 -0.5098 -1.1408 -0.3180
 4010SOL    HW216039   0.761   1.536   2.099  0.7824  0.1115  1.3117
 4010SOL     MW16040   0.696   1.592   2.085  0.3420 -0.6091  0.4311
 4011SOL     OW16041   3.429   1.227   4.471  0.8335 -0.8611  0.3047
 4011SOL    HW116042   3.510   1.176   4.478  0.4249 -1.4348  1.0045
 4011SOL    HW216043   3.409   1.252   4.561  0.8461  0.2740  0.0087
 4011SOL     MW16044   3.437   1.223   4.483  0.7828 -0.7892  0.3564
 4012SOL     OW16045   2.029   3.863   1.304  0.5787 -0.2803  0.0039
 4012SOL    HW116046   1.975   3.840   1.229  1.9462 -0.5945 -0.9263
 4012SOL    HW216047   2.054   3.780   1.343  2.0751 -0.2537 -0.8355
 4012SOL     MW16048   2.026   3.850   1.300  0.9453 -0.3172 -0.2226
 4013SOL     OW16049   4.244   1.775   0.907  0.0721  0.8207 -0.1555
 4013SOL    HW116050   4.284   1.700   0.951 -1.8778  0.6073  1.4554
 4013SOL    HW216051   4.307   1.846   0.918  0.8281  0.0621  0.5929
 4013SOL     MW16052   4.257   1.774   0.914 -0.0808  0.6963  0.1465
 4014SOL     OW16053   4.044   3.166   1.854 -0.0635  0.3281 -0.1833
 4014SOL    HW116054   4.126   3.119   1.840 -0.9863 -1.4400  0.0599
 4014SOL    HW216055   4.066   3.234   1.918  0.8274 -1.3564  1.3913
 4014SOL     MW16056   4.058   3.169   1.861 -0.0676 -0.1139  0.0494
 4015SOL     OW16057   4.822   3.784   1.668  0.2817 -0.2752 -0.1102
 4015SOL    HW116058   4.793   3.726   1.598 -1.0718 -0.4069  0.5391
 4015SOL    HW216059   4.802   3.872   1.637 -1.6825 -0.4063  0.6866
 4015SOL     MW16060   4.816   3.788   1.655 -0.1430 -0.3089  0.0749
 4016SOL     OW16061   3.824   0.916   4.004 -0.1404  0.4532 -0.4155
 4016SOL    HW116062   3.913   0.946   3.985  0.1829 -0.9795 -1.2695
 4016SOL    HW216063   3.769   0.994   3.989  0.9340  1.3109 -0.0237
 4016SOL     MW16064   3.828   0.930   4.000  0.0385  0.3796 -0.4747
 4017SOL     OW16065   0.715   1.401   4.160  0.2560 -0.1139 -0.5020
 4017SOL    HW116066   0.678   1.482   4.195  0.0040 -0.7646  0.8140
 4017SOL    HW216067   0.728   1.345   4.237 -0.5869 -1.7359 -1.4660
 4017SOL     MW16068   0.712   1.404   4.174  0.1158 -0.4049 -0.4569
 4018SOL     OW16069   1.721   4.880   3.563 -0.2088  0.4179  0.5554
 4018SOL    HW116070   1.672   4.897   3.643 -0.5452 -0.5410  0.5692
 4018SOL    HW216071   1.668   4.918   3.493 -0.2962  0.5817  0.7116
 4018SOL     MW16072   1.708   4.887   3.564 -0.2630  0.3161  0.5772
 4019SOL     OW16073   0.951  -0.002   3.129 -0.2360 -0.1276  0.5646
 4019SOL    HW116074   0.858  -0.005   3.108 -0.4053  1.3633  1.0490
 4019SOL    HW216075   0.959   0.063   3.198  1.4982  1.9016 -1.3967
 4019SOL     MW16076   0.940   0.006   3.135 -0.0357  0.3230  0.3755
 4020SOL     OW16077   4.068   0.435   4.666 -0.1679 -0.5676  0.2603
 4020SOL    HW116078   4.146   0.436   4.611 -0.1303 -1.2137  0.2994
 4020SOL    HW216079   4.081   0.507   4.728  0.4477 -0.7426  0.3376
 4020SOL     MW16080   4.080   0.444   4.667 -0.0843 -0.6727  0.2752
 4021SOL     OW16081   0.349   0.961   0.905 -0.2383  0.0959 -0.2884
 4021SOL    HW116082   0.299   0.879   0.910 -0.5731  0.1295 -2.2510
 4021SOL    HW216083   0.283   1.030   0.911  0.0102  0.2509  1.0188
 4021SOL     MW16084   0.334   0.959   0.906 -0.2493  0.1201 -0.3723
 4022SOL     OW16085   5.358   0.299   2.170 -0.2577  0.0365 -0.0996
 4022SOL    HW116086   5.368   0.393   2.178  0.7937  0.0361 -1.1294
 4022SOL    HW216087   5.348   0.283   2.076 -0.3638 -0.8761  0.0516
 4022SOL     MW16088   5.358   0.309   2.159 -0.1367 -0.0804 -0.2121
 4023SOL     OW16089   4.798   4.881   1.277 -0.4763  0.0584  1.3461
 4023SOL    HW116090   4.714   4.918   1.252 -0.5212  0.8212  2.5449
 4023SOL    HW216091   4.817   4.919   1.363  1.1813  0.0585  1.0208
 4023SOL     MW16092   4.790   4.890   1.285 -0.2699  0.1561  1.4579
 4024SOL     OW16093   4.096   5.102   5.444 -0.2057  0.2680 -0.4884
 4024SOL    HW116094   4.181   5.140   5.420  0.9647 -0.5849  1.9659
 4024SOL    HW216095   4.091   5.115   5.539 -2.2307 -0.8767 -0.3999
 4024SOL     MW16096   4.107   5.109   5.453 -0.3151  0.0122 -0.1629
 4025SOL     OW16097   3.639   4.284   4.982 -0.5222  0.1192  0.0873
 4025SOL    HW116098   3.579   4.210   4.990 -0.4638 -0.0574 -1.0060
 4025SOL    HW216099   3.630   4.313   4.891  0.7105  0.3808  0.0294
 4025SOL     MW16100   3.630   4.279   4.971 -0.3570  0.1301 -0.0601
 4026SOL     OW16101   2.372   1.386   2.605 -0.0307  0.3154  0.5507
 4026SOL    HW116102   2.322   1.459   2.643  0.5151  2.5209 -2.5807
 4026SOL    HW216103   2.421   1.425   2.533  1.4704 -2.9392 -0.3880
 4026SOL     MW16104   2.372   1.400   2.601  0.2313  0.1811  0.0297
 4027SOL     OW16105   0.231   3.364   3.444 -0.0386 -0.7814  0.0498
 4027SOL    HW116106   0.189   3.332   3.524 -0.5966 -1.0034 -0.3304
 4027SOL    HW216107   0.159   3.395   3.390  0.4215  0.2934  0.0370
 4027SOL     MW16108   0.217   3.364   3.448 -0.0511 -0.6723 -0.0005
 4028SOL     OW16109   2.590   4.345   4.967 -0.2813 -0.2696 -0.3944
 4028SOL    HW116110   2.647   4.297   4.906  1.7136  0.3151  0.9338
 4028SOL    HW216111   2.584   4.288   5.043 -0.2650  0.3134  0.0461
 4028SOL     MW16112   2.597   4.332   4.969 -0.0239 -0.1201 -0.1680
 4029SOL     OW16113   3.591   0.724   3.701  0.0570  0.8747  0.1244
 4029SOL    HW116114   3.624   0.802   3.658  1.8641  0.3859  0.5535
 4029SOL    HW216115   3.606   0.653   3.637  1.7984  0.3184  1.0837
 4029SOL     MW16116   3.597   0.725   3.687  0.5112  0.7409  0.3021
 4030SOL     OW16117   2.550   1.658   4.979  0.2033 -0.1058  0.6923
 4030SOL    HW116118   2.520   1.624   5.063 -1.4395 -0.1071  0.1268
 4030SOL    HW216119   2.480   1.636   4.917  0.5086  1.5808 -0.2991
 4030SOL     MW16120   2.537   1.650   4.982  0.0321  0.1099  0.4930
 4031SOL     OW16121   4.684   1.114   0.269 -0.8825 -0.1059 -0.6714
 4031SOL    HW116122   4.760   1.105   0.211  1.0131  3.1003  0.9934
 4031SOL    HW216123   4.614   1.148   0.212  0.3314  1.0977 -1.5153
 4031SOL     MW16124   4.685   1.118   0.254 -0.4845  0.4586 -0.5663
 4032SOL     OW16125   4.309   1.216   0.868  0.2171 -0.2497 -0.1053
 4032SOL    HW116126   4.343   1.183   0.951  1.1094  2.4099  0.6861
 4032SOL    HW216127   4.215   1.197   0.872  0.1856  0.0779  1.6821
 4032SOL     MW16128   4.301   1.209   0.880  0.3273  0.1327  0.2248
 4033SOL     OW16129   0.581   4.737   0.410 -0.3027 -0.7361  0.2155
 4033SOL    HW116130   0.654   4.795   0.389 -0.0096 -0.6882  1.3013
 4033SOL    HW216131   0.590   4.720   0.504 -1.9396 -0.3599  0.4747
 4033SOL     MW16132   0.591   4.742   0.419 -0.4747 -0.6818  0.3877
 4034SOL     OW16133   4.322   2.524   0.861 -0.5536 -0.1996  0.3257
 4034SOL    HW116134   4.283   2.453   0.810  0.7610  0.0692 -1.1412
 4034SOL    HW216135   4.253   2.590   0.865 -1.8391 -1.5649  1.8334
 4034SOL     MW16136   4.308   2.523   0.855 -0.5499 -0.3400  0.3309
 4035SOL     OW16137   0.648   4.194   2.303 -0.1012 -0.1499 -0.1051
 4035SOL    HW116138   0.570   4.152   2.341 -1.3983  0.8489 -1.5279
 4035SOL    HW216139   0.613   4.257   2.240  1.8984 -0.0266 -1.1724
 4035SOL     MW16140   0.633   4.197   2.300 -0.0113 -0.0063 -0.4238
 4036SOL     OW16141   4.689   3.748   2.641  0.1700 -0.2117 -0.6451
 4036SOL    HW116142   4.646   3.747   2.727  1.0971 -2.2645 -0.1418
 4036SOL    HW216143   4.724   3.659   2.631  2.1690  0.6727 -2.0839
 4036SOL     MW16144   4.688   3.736   2.651  0.5446 -0.3612 -0.7649
 4037SOL     OW16145   3.474   0.481   2.790 -0.0227  0.8632 -0.3493
 4037SOL    HW116146   3.453   0.481   2.697 -0.2918 -2.2478 -0.3951
 4037SOL    HW216147   3.391   0.502   2.833 -0.4948 -0.0880 -0.7743
 4037SOL     MW16148   3.461   0.484   2.784 -0.1176  0.3432 -0.4095
 4038SOL     OW16149   5.049   0.339   5.310 -0.3083 -0.2270 -0.5100
 4038SOL    HW116150   5.012   0.282   5.377 -0.4301  0.4179 -0.0159
 4038SOL    HW216151   4.995   0.324   5.233  0.2859 -1.5143 -0.6850
 4038SOL     MW16152   5.037   0.330   5.309 -0.2478 -0.3092 -0.4691
 4039SOL     OW16153   0.696   0.792   4.771 -0.0224  0.2206  0.1439
 4039SOL    HW116154   0.664   0.821   4.685 -0.0920 -0.0706  0.0702
 4039SOL    HW216155   0.634   0.829   4.833 -0.1304  0.2047  0.0466
 4039SOL     MW16156   0.684   0.800   4.768 -0.0451  0.1813  0.1220
 4040SOL     OW16157   2.868   4.459   3.468 -0.6858  0.7371 -0.0468
 4040SOL    HW116158   2.793   4.453   3.409  0.2650 -2.0832 -1.1452
 4040SOL    HW216159   2.838   4.421   3.550 -0.7764  0.5592 -0.1608
 4040SOL     MW16160   2.855   4.453   3.471 -0.5757  0.3533 -0.2020
 4041SOL     OW16161   3.321   4.742   2.559 -0.7670 -0.1900 -0.5199
 4041SOL    HW116162   3.292   4.833   2.560  0.2297  0.1365 -0.5880
 4041SOL    HW216163   3.407   4.744   2.516 -1.3565 -1.3611 -1.8238
 4041SOL     MW16164   3.328   4.754   2.554 -0.7149 -0.2981 -0.6955
 4042SOL     OW16165   4.525   5.245   3.789  0.2173  0.1650  0.0334
 4042SOL    HW116166   4.554   5.311   3.853  1.6701  0.3981 -0.8133
 4042SOL    HW216167   4.567   5.164   3.818 -0.3140 -0.0519  0.1986
 4042SOL     MW16168   4.534   5.243   3.801  0.3352  0.1671 -0.0539
 4043SOL     OW16169   4.909   3.080   3.810  0.2345  0.2854 -0.0463
 4043SOL    HW116170   4.907   3.057   3.717  2.3078  0.5746 -0.2239
 4043SOL    HW216171   4.895   3.175   3.812 -1.6525  0.0420  0.1326
 4043SOL     MW16172   4.907   3.090   3.799  0.2584  0.2913 -0.0462
 4044SOL     OW16173   0.601   5.213   1.680  0.5737  0.0898 -0.1174
 4044SOL    HW116174   0.567   5.238   1.766  0.6377 -0.2048 -0.0039
 4044SOL    HW216175   0.623   5.296   1.638  1.6485  0.1852  0.6074
 4044SOL     MW16176   0.599   5.227   1.686  0.7195  0.0643 -0.0101
 4045SOL     OW16177   2.260   2.198   3.280 -0.2131 -0.0723 -0.4813
 4045SOL    HW116178   2.341   2.192   3.330  0.4829  2.6341 -1.1481
 4045SOL    HW216179   2.209   2.265   3.326 -0.6852  0.5370 -1.8490
 4045SOL     MW16180   2.264   2.206   3.292 -0.1844  0.3521 -0.7418
 4046SOL     OW16181   2.146   2.989   2.865  0.4862  0.2161 -0.2546
 4046SOL    HW116182   2.205   2.927   2.908 -0.0625  1.0331  1.8091
 4046SOL    HW216183   2.066   2.940   2.850 -0.2289  0.5505  2.0917
 4046SOL     MW16184   2.143   2.975   2.869  0.3244  0.3635  0.3099
 4047SOL     OW16185   2.086   3.956   2.072 -0.3040  0.6649 -0.2101
 4047SOL    HW116186   2.043   3.936   2.155  0.7620  1.3189  0.5243
 4047SOL    HW216187   2.031   4.023   2.031 -0.6434  0.5992  0.1373
 4047SOL     MW16188   2.073   3.962   2.077 -0.2110  0.7402 -0.0716
 4048SOL     OW16189   2.546   2.430   0.754  0.4412  0.2012 -0.1620
 4048SOL    HW116190   2.589   2.386   0.828  1.7908  2.1721  0.3194
 4048SOL    HW216191   2.471   2.474   0.794 -0.4125 -0.9227 -0.4889
 4048SOL     MW16192   2.542   2.430   0.769  0.5047  0.3096 -0.1422
 4049SOL     OW16193   5.378   4.984   4.109 -0.1661 -0.3123 -0.4346
 4049SOL    HW116194   5.439   4.912   4.096 -0.6989 -0.7207 -0.6841
 4049SOL    HW216195   5.420   5.039   4.175  0.9315 -0.0544 -1.3282
 4049SOL     MW16196   5.391   4.982   4.116 -0.0938 -0.3316 -0.5810
 4050SOL     OW16197   1.406   0.730   4.929 -0.4912  0.2851  0.4244
 4050SOL    HW116198   1.497   0.734   4.900 -0.4491  1.3451  0.6421
 4050SOL    HW216199   1.409   0.690   5.016  0.1030  2.6508  1.5736
 4050SOL     MW16200   1.418   0.726   4.937 -0.4098  0.7236  0.5994
 4051SOL     OW16201   1.294   3.487   2.658  0.0988 -0.2507  0.0230
 4051SOL    HW116202   1.202   3.466   2.641  0.1239 -0.1934 -0.1883
 4051SOL    HW216203   1.330   3.409   2.700 -0.0791 -0.2259  0.2190
 4051SOL     MW16204   1.287   3.474   2.661  0.0792 -0.2402  0.0210
 4052SOL     OW16205   3.215   2.595   2.642  0.6859  0.3287  0.0584
 4052SOL    HW116206   3.227   2.642   2.559  1.6132  1.5831  0.8610
 4052SOL    HW216207   3.292   2.539   2.650  1.4247  1.4000  0.7887
 4052SOL     MW16208   3.226   2.594   2.632  0.8992  0.6264  0.2546
 4053SOL     OW16209   1.311   4.188   1.192  0.4357  0.1859  0.0625
 4053SOL    HW116210   1.402   4.217   1.202  0.4864  0.1107 -0.1564
 4053SOL    HW216211   1.270   4.256   1.138  0.5959 -0.2208 -0.5819
 4053SOL     MW16212   1.318   4.200   1.186  0.4627  0.1242 -0.0480
 4054SOL     OW16213   4.763   1.457   1.952  0.0517  0.0129 -0.4131
 4054SOL    HW116214   4.681   1.444   2.000  0.5064  0.7796  0.5920
 4054SOL    HW216215   4.762   1.549   1.928  0.6218  0.0247 -0.4052
 4054SOL     MW16216   4.752   1.467   1.955  0.1829  0.1125 -0.2834
 4055SOL     OW16217   0.886   3.402   1.667 -0.0395 -0.4957 -0.3093
 4055SOL    HW116218   0.981   3.413   1.678 -0.2337  0.0997  0.8895
 4055SOL    HW216219   0.847   3.458   1.734 -1.2319 -1.5123 -0.1078
 4055SOL     MW16220   0.894   3.411   1.677 -0.2170 -0.5496 -0.1300
 4056SOL     OW16221   2.022   5.055   4.907  0.3550  0.2064  0.1821
 4056SOL    HW116222   1.937   5.075   4.947 -0.6184 -0.0058 -1.6544
 4056SOL    HW216223   2.065   4.997   4.970 -1.1173 -0.1591  0.9055
 4056SOL     MW16224   2.016   5.050   4.920  0.0420  0.1324  0.0396
 4057SOL     OW16225   3.642   3.095   2.403  0.0709 -0.2660 -0.5173
 4057SOL    HW116226   3.695   3.150   2.460  0.6027 -1.0073 -0.2710
 4057SOL    HW216227   3.574   3.153   2.370 -0.3024  0.1717  0.9359
 4057SOL     MW16228   3.640   3.109   2.406  0.0912 -0.3049 -0.2997
 4058SOL     OW16229   0.252   3.709   1.981 -0.4969  0.0338  0.1678
 4058SOL    HW116230   0.197   3.648   2.029 -0.3241  1.5320  2.4548
 4058SOL    HW216231   0.337   3.704   2.024  0.2970 -0.0371 -1.3436
 4058SOL     MW16232   0.256   3.701   1.993 -0.3731  0.2165  0.2671
 4059SOL     OW16233   0.812   1.778   1.512  0.1385 -0.1595  0.5826
 4059SOL    HW116234   0.898   1.806   1.481 -0.3106  0.3002 -0.2959
 4059SOL    HW216235   0.778   1.853   1.561 -1.3120  1.2180 -2.2670
 4059SOL     MW16236   0.819   1.791   1.514 -0.1047  0.0757  0.1053
 4060SOL     OW16237   5.356   4.902   0.484  0.2923 -0.0666  0.2100
 4060SOL    HW116238   5.373   4.959   0.410  1.3501 -0.1872  0.3503
 4060SOL    HW216239   5.439   4.858   0.501 -0.0938 -0.4930  1.0858
 4060SOL     MW16240   5.369   4.903   0.477  0.3783 -0.1367  0.3400
 4061SOL     OW16241   4.623   5.268   1.511  0.8413 -0.3527  0.3621
 4061SOL    HW116242   4.692   5.300   1.453  0.1637 -0.7872 -0.6921
 4061SOL    HW216243   4.578   5.347   1.540  0.8490 -0.1654 -0.1253
 4061SOL     MW16244   4.626   5.283   1.508  0.7555 -0.3843  0.1648
 4062SOL     OW16245   3.609   1.525   3.946 -0.2659  0.1028 -0.2836
 4062SOL    HW116246   3.517   1.505   3.963 -0.1521  1.1129  1.8482
 4062SOL    HW216247   3.610   1.619   3.928  0.2948 -0.0280 -0.9922
 4062SOL     MW16248   3.597   1.534   3.945 -0.1796  0.2154 -0.1014
 4063SOL     OW16249   2.065   4.277   1.388 -0.1323  0.1979 -0.1411
 4063SOL    HW116250   2.105   4.250   1.305  0.2265 -0.5171  0.2543
 4063SOL    HW216251   2.068   4.373   1.386 -1.7153  0.2613 -1.7242
 4063SOL     MW16252   2.071   4.286   1.377 -0.2890  0.1145 -0.2932
 4064SOL     OW16253   5.160   1.842   1.062  0.7112  0.4967  0.0786
 4064SOL    HW116254   5.165   1.854   0.967  0.7349 -1.0198 -0.1317
 4064SOL    HW216255   5.177   1.929   1.097 -0.3202  1.3092 -1.3257
 4064SOL     MW16256   5.163   1.855   1.054  0.5822  0.4066 -0.1281
 4065SOL     OW16257   2.131   1.770   0.554  0.1389  0.0203 -0.2033
 4065SOL    HW116258   2.181   1.837   0.508 -0.4132 -0.2294 -1.1867
 4065SOL    HW216259   2.044   1.773   0.515 -1.0140  1.2261  2.2299
 4065SOL     MW16260   2.126   1.779   0.543 -0.0794  0.1427 -0.0177
 4066SOL     OW16261   3.560   0.866   2.849  0.3117  0.0438  0.5519
 4066SOL    HW116262   3.583   0.793   2.907  0.1171 -1.3951 -1.1269
 4066SOL    HW216263   3.561   0.943   2.907 -0.8573 -1.4409  2.6930
 4066SOL     MW16264   3.563   0.867   2.864  0.1371 -0.3305  0.6111
 4067SOL     OW16265   1.086   1.024   3.400  0.6461  0.3810  0.1300
 4067SOL    HW116266   1.139   0.977   3.463  1.6754  1.6106  0.2234
 4067SOL    HW216267   1.095   0.975   3.318  0.9253 -0.1103  0.4553
 4067SOL     MW16268   1.094   1.012   3.398  0.8136  0.4755  0.1836
 4068SOL     OW16269   2.353   3.936   3.437 -0.6014  0.1899  0.0826
 4068SOL    HW116270   2.444   3.933   3.409 -1.0305 -1.4828 -1.3120
 4068SOL    HW216271   2.358   3.938   3.533  0.9145 -0.7724  0.0661
 4068SOL     MW16272   2.365   3.936   3.446 -0.4622 -0.1474 -0.0981
 4069SOL     OW16273   2.283   1.621   2.679  0.6102  0.0714  0.2398
 4069SOL    HW116274   2.236   1.658   2.753  1.3509  1.5728 -0.0021
 4069SOL    HW216275   2.222   1.626   2.606  0.8992  1.4881  0.0572
 4069SOL     MW16276   2.269   1.626   2.679  0.7420  0.4449  0.1855
 4070SOL     OW16277   4.683   4.599   4.220  0.3951 -0.2708  0.0936
 4070SOL    HW116278   4.664   4.505   4.224 -2.2323  0.2074  0.5552
 4070SOL    HW216279   4.656   4.626   4.133  0.8108  0.1415  0.0856
 4070SOL     MW16280   4.677   4.590   4.210  0.1120 -0.1568  0.1517
 4071SOL     OW16281   5.130   4.572   5.372 -0.6168 -0.3218  0.2385
 4071SOL    HW116282   5.050   4.572   5.319 -0.2798 -0.4565 -0.2787
 4071SOL    HW216283   5.109   4.627   5.447 -0.5445  1.3054 -0.8869
 4071SOL     MW16284   5.117   4.579   5.375 -0.5644 -0.1307  0.0282
 4072SOL     OW16285   0.787   0.173   2.066  0.0576  0.4769  0.6799
 4072SOL    HW116286   0.799   0.149   2.157  0.0102  0.7814  0.7690
 4072SOL    HW216287   0.727   0.107   2.031 -2.2666  1.9662  1.6206
 4072SOL     MW16288   0.781   0.162   2.073 -0.2460  0.7065  0.8118
 4073SOL     OW16289   4.305   1.588   0.105  0.1185 -0.7529 -0.2302
 4073SOL    HW116290   4.275   1.643   0.177 -0.2430 -0.6822 -0.4318
 4073SOL    HW216291   4.401   1.591   0.111  0.1043 -0.2062 -0.1575
 4073SOL     MW16292   4.314   1.596   0.115  0.0704 -0.6739 -0.2467
 4074SOL     OW16293   4.848   0.222   4.824  0.1014 -0.9929 -0.8037
 4074SOL    HW116294   4.846   0.264   4.738 -1.6308 -0.0655 -0.3514
 4074SOL    HW216295   4.802   0.139   4.812  0.1531 -1.0152 -0.8486
 4074SOL     MW16296   4.842   0.217   4.811 -0.1137 -0.8771 -0.7516
 4075SOL     OW16297   1.002   3.207   4.307  0.1956 -0.4424  0.1111
 4075SOL    HW116298   1.039   3.277   4.254  0.7086 -0.3040  0.6402
 4075SOL    HW216299   0.926   3.176   4.257 -0.0920  0.5450 -0.0836
 4075SOL     MW16300   0.997   3.212   4.294  0.2245 -0.2983  0.1539
 4076SOL     OW16301   4.920   0.497   2.688  0.5543 -0.1418  0.2190
 4076SOL    HW116302   4.870   0.462   2.614  0.0980  1.4686 -0.2602
 4076SOL    HW216303   4.858   0.551   2.736  1.8037  2.0019 -0.4509
 4076SOL     MW16304   4.906   0.499   2.685  0.6559  0.3387  0.0719
 4077SOL     OW16305   2.077   4.560   0.563  0.0625  0.0074 -0.0889
 4077SOL    HW116306   2.048   4.596   0.479 -1.4721  0.6126  0.6564
 4077SOL    HW216307   2.049   4.468   0.561  1.2976 -0.3782 -0.7806
 4077SOL     MW16308   2.070   4.553   0.552  0.0241  0.0355 -0.0820
 4078SOL     OW16309   5.289   0.569   4.125  0.2104  0.2687  0.2537
 4078SOL    HW116310   5.380   0.542   4.136  0.2019  0.2829  0.3590
 4078SOL    HW216311   5.258   0.519   4.049  0.0504 -0.3933  0.7362
 4078SOL     MW16312   5.297   0.559   4.117  0.1889  0.1858  0.3290
 4079SOL     OW16313   4.303   0.903   0.351  0.2165  0.4227 -0.2275
 4079SOL    HW116314   4.258   0.986   0.337  0.5140  0.6585  0.1888
 4079SOL    HW216315   4.264   0.843   0.288 -1.7177  0.2150  1.0669
 4079SOL     MW16316   4.293   0.906   0.341  0.0070  0.4263 -0.0086
 4080SOL     OW16317   2.704   4.834   2.138 -0.2242 -0.2225 -0.4763
 4080SOL    HW116318   2.617   4.848   2.100  0.0121 -0.1499 -0.9982
 4080SOL    HW216319   2.749   4.777   2.075 -0.3454 -1.3825  0.4387
 4080SOL     MW16320   2.698   4.828   2.125 -0.2095 -0.3617 -0.4260
 4081SOL     OW16321   3.977   2.626   2.124 -0.7784  0.0147  0.1246
 4081SOL    HW116322   4.000   2.568   2.051 -1.4899 -0.1056 -0.0097
 4081SOL    HW216323   3.987   2.571   2.202  1.7770  0.6494  0.3178
 4081SOL     MW16324   3.981   2.612   2.125 -0.5424  0.0805  0.1322
 4082SOL     OW16325   0.172   0.760   1.572 -0.4566  0.0144  0.0346
 4082SOL    HW116326   0.149   0.681   1.524 -1.8777  0.7372 -0.5254
 4082SOL    HW216327   0.152   0.832   1.512  0.0538  0.8399  0.8197
 4082SOL     MW16328   0.167   0.759   1.559 -0.5731  0.2126  0.0634
 4083SOL     OW16329   3.434   2.328   3.999 -0.6171  0.5407 -0.7497
 4083SOL    HW116330   3.449   2.285   4.083  0.7427  0.3398 -1.0737
 4083SOL    HW216331   3.400   2.415   4.023 -0.8774  0.2478 -0.0260
 4083SOL     MW16332   3.432   2.334   4.013 -0.4764  0.4775 -0.6985
 4084SOL     OW16333   1.027   3.995   2.165  0.3102  0.0388 -0.1600
 4084SOL    HW116334   0.932   3.982   2.162  0.4484 -1.5066  0.8890
 4084SOL    HW216335   1.038   4.090   2.155 -1.2936  0.1770 -0.9389
 4084SOL     MW16336   1.016   4.006   2.164  0.1226 -0.1413 -0.1254
 4085SOL     OW16337   4.723   2.219   1.206  0.2464  0.5452  0.1904
 4085SOL    HW116338   4.746   2.153   1.141  3.1106  0.7113  0.8873
 4085SOL    HW216339   4.689   2.170   1.280 -0.3603  0.1247 -0.3544
 4085SOL     MW16340   4.722   2.205   1.207  0.5354  0.5126  0.2099
 4086SOL     OW16341   1.739   4.956   5.278  0.1222 -0.1460  0.4860
 4086SOL    HW116342   1.755   4.974   5.371 -0.5586 -0.8972  0.7636
 4086SOL    HW216343   1.780   4.871   5.263 -0.8899 -0.6361  0.4353
 4086SOL     MW16344   1.746   4.947   5.288 -0.0945 -0.3049  0.5151
 4087SOL     OW16345   0.355   3.556   3.706 -0.1351  0.9223  0.3045
 4087SOL    HW116346   0.363   3.460   3.703 -0.5446  0.8693 -2.4744
 4087SOL    HW216347   0.412   3.586   3.635 -0.3598  2.7263  0.8499
 4087SOL     MW16348   0.363   3.547   3.696 -0.2163  1.1465  0.0186
 4088SOL     OW16349   4.161   2.808   1.834  0.7633  0.2707 -0.0713
 4088SOL    HW116350   4.070   2.838   1.835  0.8189  0.4307  0.3244
 4088SOL    HW216351   4.190   2.816   1.925  1.7016  1.7925 -0.4625
 4088SOL     MW16352   4.153   2.813   1.846  0.8906  0.4860 -0.0707
 4089SOL     OW16353   0.907   0.077   2.718 -0.3638 -0.4775 -0.0779
 4089SOL    HW116354   0.871   0.146   2.774 -0.0316  0.8710 -1.4572
 4089SOL    HW216355   0.831   0.024   2.693 -0.7796 -0.0354  0.2373
 4089SOL     MW16356   0.893   0.079   2.722 -0.3745 -0.2483 -0.2142
 4090SOL     OW16357   0.411   1.225   2.266  0.1713 -0.3719 -0.0035
 4090SOL    HW116358   0.475   1.178   2.212 -0.1324 -0.0615 -0.6483
 4090SOL    HW216359   0.357   1.272   2.203  1.4243  2.0972  0.6639
 4090SOL     MW16360   0.412   1.225   2.251  0.2928 -0.0161 -0.0006
 4091SOL     OW16361   4.827   4.123   3.095  0.3891  0.0280  0.4370
 4091SOL    HW116362   4.823   4.081   3.009 -1.0744 -0.4819  0.7166
 4091SOL    HW216363   4.853   4.053   3.155  1.1239  0.3114  0.4508
 4091SOL     MW16364   4.830   4.109   3.092  0.2958 -0.0010  0.4746
 4092SOL     OW16365   0.869   5.037   1.766 -0.0163  0.1365 -0.2278
 4092SOL    HW116366   0.909   5.062   1.683 -0.7970 -1.5923 -1.1535
 4092SOL    HW216367   0.784   5.080   1.766 -1.2836 -2.2187 -1.7375
 4092SOL     MW16368   0.863   5.046   1.756 -0.2785 -0.3863 -0.5395
 4093SOL     OW16369   0.647   2.836   0.596  0.1060 -0.5259  0.7049
 4093SOL    HW116370   0.683   2.897   0.531  0.3031 -2.7483 -1.4336
 4093SOL    HW216371   0.574   2.793   0.551 -1.0144 -0.7910  2.6683
 4093SOL     MW16372   0.642   2.838   0.582 -0.0122 -0.8443  0.6825
 4094SOL     OW16373   3.504   4.069   5.043 -0.3314 -0.1422  0.2100
 4094SOL    HW116374   3.469   4.064   5.133 -0.4376 -0.0567  0.1743
 4094SOL    HW216375   3.472   3.990   5.001  2.2615 -1.7926  1.1263
 4094SOL     MW16376   3.495   4.058   5.049 -0.0131 -0.3425  0.3227
 4095SOL     OW16377   0.181   5.241   4.440 -0.2439 -0.8610  1.1268
 4095SOL    HW116378   0.261   5.262   4.488  0.8344 -1.6859 -0.2503
 4095SOL    HW216379   0.127   5.193   4.503  0.3607 -0.3497  2.0523
 4095SOL     MW16380   0.184   5.238   4.454 -0.0284 -0.9012  1.0690
 4096SOL     OW16381   1.815   3.367   0.209 -0.2083  0.5989  0.8143
 4096SOL    HW116382   1.738   3.361   0.152  0.3918 -0.1201  0.0511
 4096SOL    HW216383   1.785   3.335   0.294 -1.1594  1.8397  0.9727
 4096SOL     MW16384   1.801   3.362   0.213 -0.2532  0.6657  0.7369
 4097SOL     OW16385   1.325   1.680   3.805  0.0297  0.2906 -0.3935
 4097SOL    HW116386   1.303   1.628   3.728  0.7038 -1.3922  0.4852
 4097SOL    HW216387   1.411   1.718   3.786  1.3876 -2.1520  0.4069
 4097SOL     MW16388   1.333   1.678   3.793  0.2898 -0.2375 -0.1785
 4098SOL     OW16389   4.041   1.433   3.997 -0.1676  0.1351  0.1414
 4098SOL    HW116390   4.105   1.450   3.928  0.1260  0.9160  0.5945
 4098SOL    HW216391   4.088   1.379   4.060 -1.1041 -2.5401 -1.3043
 4098SOL     MW16392   4.055   1.428   3.996 -0.2499 -0.1074  0.0144
 4099SOL     OW16393   4.335   3.115   3.857  0.3735  0.2365  0.5159
 4099SOL    HW116394   4.261   3.076   3.905  0.6846  0.0544  0.8505
 4099SOL    HW216395   4.323   3.209   3.867  0.1577  0.2105  0.5206
 4099SOL     MW16396   4.324   3.122   3.864  0.3857  0.2099  0.5593
 4100SOL     OW16397   3.109   4.769   0.376 -0.6151 -0.2903 -0.2132
 4100SOL    HW116398   3.085   4.693   0.429  2.0896 -0.2685  1.2050
 4100SOL    HW216399   3.049   4.838   0.405  1.1565 -0.0458  3.6024
 4100SOL     MW16400   3.098   4.768   0.387 -0.0421 -0.2562  0.4568
 4101SOL     OW16401   3.955   4.556   2.186 -0.6225  0.2467  0.0796
 4101SOL    HW116402   3.910   4.634   2.218 -0.1139 -0.0277  1.5411
 4101SOL    HW216403   3.923   4.544   2.097 -1.5445  1.4771  0.2283
 4101SOL     MW16404   3.945   4.565   2.178 -0.6754  0.3691  0.2858
 4102SOL     OW16405   0.156   3.156   3.151  0.1173  0.0672  0.4086
 4102SOL    HW116406   0.100   3.081   3.169 -1.1297  0.7465 -0.4873
 4102SOL    HW216407   0.096   3.230   3.147  1.2194  0.9978  0.4501
 4102SOL     MW16408   0.141   3.156   3.153  0.0988  0.2733  0.2992
 4103SOL     OW16409   3.709   5.015   1.454 -0.7773 -0.0851  0.4758
 4103SOL    HW116410   3.648   5.084   1.431 -2.2524 -1.0814  1.2205
 4103SOL    HW216411   3.733   5.033   1.545  0.5899  0.6549  0.0047
 4103SOL     MW16412   3.704   5.026   1.463 -0.7911 -0.1179  0.5108
 4104SOL     OW16413   0.384   0.263   4.652 -0.0111  0.1388  0.1238
 4104SOL    HW116414   0.442   0.232   4.722  0.5220  2.3176  0.7245
 4104SOL    HW216415   0.437   0.257   4.573 -0.3087 -1.4716  0.0020
 4104SOL     MW16416   0.398   0.258   4.651  0.0190  0.2116  0.1851
 4105SOL     OW16417   2.577   2.046   4.266  0.3170 -0.7918 -0.0790
 4105SOL    HW116418   2.622   1.985   4.207  1.6089 -1.1174  1.1745
 4105SOL    HW216419   2.621   2.033   4.351 -0.8319  0.3491  0.7180
 4105SOL     MW16420   2.589   2.036   4.269  0.3353 -0.6875  0.1835
 4106SOL     OW16421   1.133   3.151   2.671 -0.2496  0.1551  0.8051
 4106SOL    HW116422   1.166   3.122   2.756 -0.2523  0.8954  1.0683
 4106SOL    HW216423   1.212   3.176   2.622 -0.2906  0.2950  0.8097
 4106SOL     MW16424   1.148   3.151   2.675 -0.2552  0.2678  0.8394
 4107SOL     OW16425   0.727   3.102   1.692  0.3478 -0.1052  0.3455
 4107SOL    HW116426   0.783   3.050   1.635  0.7879  0.9451 -0.1944
 4107SOL    HW216427   0.678   3.159   1.633 -0.6274 -0.3571  0.8824
 4107SOL     MW16428   0.728   3.103   1.677  0.2793 -0.0030  0.3451
 4108SOL     OW16429   2.399   4.278   2.500  0.0370  0.3621 -0.1284
 4108SOL    HW116430   2.441   4.194   2.520  1.3295  0.7935 -0.9113
 4108SOL    HW216431   2.321   4.254   2.449 -0.3478 -0.4201  0.7979
 4108SOL     MW16432   2.394   4.264   2.496  0.1532  0.3172 -0.1100
 4109SOL     OW16433   4.305   2.089   0.206 -0.2551 -0.3818 -0.2393
 4109SOL    HW116434   4.298   2.055   0.295  2.6800 -0.3204  0.1293
 4109SOL    HW216435   4.234   2.152   0.198 -2.0793 -2.1036  1.1718
 4109SOL     MW16436   4.295   2.093   0.216 -0.1129 -0.5943 -0.0115
 4110SOL     OW16437   1.671   0.580   4.086  0.6980  0.0904  0.4380
 4110SOL    HW116438   1.675   0.667   4.047  0.4493  0.1779  0.6054
 4110SOL    HW216439   1.742   0.580   4.151  0.2888  0.3900  0.8854
 4110SOL     MW16440   1.681   0.591   4.090  0.6138  0.1399  0.5167
 4111SOL     OW16441   0.914   1.981   4.156  0.2789  1.1912 -0.6464
 4111SOL    HW116442   0.972   1.910   4.130  0.0737  0.5906  0.5140
 4111SOL    HW216443   0.960   2.026   4.226 -0.1697  1.4073 -0.4841
 4111SOL     MW16444   0.927   1.978   4.161  0.1952  1.1420 -0.4771
 4112SOL     OW16445   4.790   4.028   2.852 -0.3833 -0.2023 -0.0235
 4112SOL    HW116446   4.725   3.962   2.879  1.3788 -1.8899  0.3088
 4112SOL    HW216447   4.772   4.042   2.759 -1.2136 -0.6522  0.0537
 4112SOL     MW16448   4.779   4.021   2.844 -0.2640 -0.4759  0.0289
 4113SOL     OW16449   4.047   2.836   4.613 -0.8545 -0.3365 -0.8899
 4113SOL    HW116450   4.014   2.926   4.609 -1.2150 -0.4148 -0.0399
 4113SOL    HW216451   3.968   2.783   4.624 -0.4859 -0.5229  1.3452
 4113SOL     MW16452   4.032   2.841   4.614 -0.8535 -0.3704 -0.4950
 4114SOL     OW16453   4.785   3.529   4.260 -0.3657  0.3215  0.5245
 4114SOL    HW116454   4.808   3.439   4.282 -0.2940  0.4955  1.1844
 4114SOL    HW216455   4.851   3.582   4.304 -0.6382  0.7169  0.4633
 4114SOL     MW16456   4.796   3.524   4.268 -0.3914  0.3944  0.6011
 4115SOL     OW16457   0.297   4.168   1.567  0.3413 -0.1366  0.2367
 4115SOL    HW116458   0.234   4.136   1.631  0.6684  1.1465  1.2345
 4115SOL    HW216459   0.260   4.141   1.482 -1.5554  0.5822  0.7854
 4115SOL     MW16460   0.284   4.160   1.564  0.1404  0.1197  0.4347
 4116SOL     OW16461   3.013   3.681   4.097 -0.0973  0.3726 -0.3565
 4116SOL    HW116462   2.945   3.648   4.039 -1.1236  1.8022 -0.0130
 4116SOL    HW216463   2.973   3.755   4.142  1.5142  0.9164  0.2605
 4116SOL     MW16464   2.999   3.686   4.095 -0.0224  0.6252 -0.2335
 4117SOL     OW16465   3.518   2.163   1.825  0.2105 -0.4714 -0.0400
 4117SOL    HW116466   3.546   2.210   1.903  0.2038 -0.1895 -0.2077
 4117SOL    HW216467   3.571   2.083   1.824 -0.7044 -1.1203  0.9682
 4117SOL     MW16468   3.529   2.159   1.835  0.0925 -0.5184  0.0676
 4118SOL     OW16469   4.014   4.913   1.993 -0.4058 -0.5821  0.0997
 4118SOL    HW116470   4.011   5.008   2.009  0.3253 -0.5266 -0.0459
 4118SOL    HW216471   3.961   4.900   1.915  0.0754 -0.1841 -0.3069
 4118SOL     MW16472   4.007   4.924   1.985 -0.2506 -0.5241  0.0290
 4119SOL     OW16473   2.046   3.827   2.876 -0.4793 -0.1556 -0.2823
 4119SOL    HW116474   2.097   3.827   2.795 -0.7294 -1.6341 -0.4671
 4119SOL    HW216475   2.030   3.920   2.894  0.2305  0.2294 -1.5110
 4119SOL     MW16476   2.050   3.839   2.868 -0.4205 -0.2956 -0.4633
 4120SOL     OW16477   4.434   2.166   1.779 -0.2105 -0.5229 -0.4994
 4120SOL    HW116478   4.482   2.247   1.765 -1.3778  0.2316 -0.3114
 4120SOL    HW216479   4.487   2.117   1.842  0.7581 -0.1373 -1.0004
 4120SOL     MW16480   4.447   2.170   1.786 -0.2359 -0.3769 -0.5394
 4121SOL     OW16481   1.012   4.387   0.022 -0.1406 -0.0777 -0.4696
 4121SOL    HW116482   1.038   4.298   0.045  0.4606  0.2714  0.2372
 4121SOL    HW216483   0.943   4.409   0.085 -0.2930 -0.0463 -0.6462
 4121SOL     MW16484   1.006   4.379   0.033 -0.0832 -0.0290 -0.4017
 4122SOL     OW16485   2.073   0.410   3.223 -0.0307 -0.1171  0.2193
 4122SOL    HW116486   2.068   0.325   3.179  3.2371 -0.9246  1.1503
 4122SOL    HW216487   2.115   0.468   3.159  0.6623 -0.0809  0.7038
 4122SOL     MW16488   2.078   0.407   3.209  0.4763 -0.2159  0.4005
 4123SOL     OW16489   2.945   4.010   1.873  0.0914 -0.5082  0.2671
 4123SOL    HW116490   2.996   4.041   1.797  0.7969  0.3427  1.0648
 4123SOL    HW216491   2.974   3.919   1.885  0.9350 -0.2413  0.3013
 4123SOL     MW16492   2.956   4.002   1.865  0.2897 -0.3651  0.3736
 4124SOL     OW16493   0.997   0.763   0.588 -0.5263 -0.1041  1.0523
 4124SOL    HW116494   0.961   0.851   0.602 -1.9490 -0.9265  3.0318
 4124SOL    HW216495   1.089   0.770   0.612 -0.8506  0.6544  2.1343
 4124SOL     MW16496   1.004   0.775   0.593 -0.7499 -0.1123  1.4442
 4125SOL     OW16497   0.617   3.788   0.178 -0.2153 -0.8128  0.3112
 4125SOL    HW116498   0.619   3.882   0.159 -0.5360 -0.8767 -0.0424
 4125SOL    HW216499   0.676   3.749   0.113 -0.0311 -0.8509  0.4990
 4125SOL     MW16500   0.625   3.795   0.167 -0.2328 -0.8259  0.2899
 4126SOL     OW16501   4.543   3.031   4.029  0.3368  0.1778  0.4608
 4126SOL    HW116502   4.515   3.052   4.118  0.4488 -1.1318  0.8284
 4126SOL    HW216503   4.461   3.028   3.979 -0.0281 -1.5415  1.0803
 4126SOL     MW16504   4.529   3.033   4.034  0.3044 -0.2100  0.5871
 4127SOL     OW16505   4.648   0.336   0.647  0.0547  0.7573 -0.0251
 4127SOL    HW116506   4.631   0.412   0.703 -0.1713  0.1500  0.7540
 4127SOL    HW216507   4.599   0.265   0.688  0.8112  0.0312 -0.3492
 4127SOL     MW16508   4.639   0.337   0.659  0.1226  0.5866  0.0332
 4128SOL     OW16509   2.827   1.124   5.196 -0.0641  0.6122 -0.3483
 4128SOL    HW116510   2.862   1.041   5.164 -1.3485  0.2813 -0.9526
 4128SOL    HW216511   2.871   1.190   5.143  0.8516  0.3257  0.0311
 4128SOL     MW16512   2.837   1.122   5.185 -0.1113  0.5331 -0.3771
 4129SOL     OW16513   1.246   5.228   1.445 -0.2607 -0.1186 -0.2767
 4129SOL    HW116514   1.256   5.322   1.462 -0.7228 -0.0740 -0.2469
 4129SOL    HW216515   1.332   5.192   1.464 -0.2459  0.2127  0.3228
 4129SOL     MW16516   1.258   5.236   1.450 -0.3180 -0.0705 -0.1962
 4130SOL     OW16517   0.616   4.781   4.852 -0.4255 -0.1330  0.4771
 4130SOL    HW116518   0.621   4.793   4.947  1.1725  1.5268  0.2383
 4130SOL    HW216519   0.646   4.692   4.837  0.0607 -0.1468  1.4726
 4130SOL     MW16520   0.620   4.771   4.863 -0.1587  0.0777  0.5740
 4131SOL     OW16521   4.046   3.269   4.856  0.0718 -0.2728 -0.4902
 4131SOL    HW116522   3.958   3.246   4.887 -0.5614 -0.0175 -2.0228
 4131SOL    HW216523   4.033   3.346   4.802  1.4614  0.6026  0.3556
 4131SOL     MW16524   4.033   3.276   4.853  0.1687 -0.1280 -0.5781
 4132SOL     OW16525   0.028   2.521   3.427 -0.0066  0.0348  0.2594
 4132SOL    HW116526  -0.051   2.540   3.376  1.4685  1.6007 -1.6024
 4132SOL    HW216527   0.061   2.606   3.454  1.5617 -0.4966  0.1381
 4132SOL     MW16528   0.022   2.534   3.424  0.3830  0.1673  0.0056
 4133SOL     OW16529   5.363   3.975   2.502  0.5060  0.2934 -0.2907
 4133SOL    HW116530   5.334   4.027   2.577 -1.6321  0.2017 -0.9751
 4133SOL    HW216531   5.432   3.918   2.536  0.5392  1.2210  1.2539
 4133SOL     MW16532   5.368   3.974   2.516  0.2366  0.4004 -0.1806
 4134SOL     OW16533   3.234   3.073   2.492  0.4853 -0.0271  0.4150
 4134SOL    HW116534   3.228   3.158   2.449  4.8382  0.5333  0.5114
 4134SOL    HW216535   3.214   3.010   2.424 -0.0246  0.9996 -0.4119
 4134SOL     MW16536   3.231   3.076   2.478  0.9773  0.1760  0.3215
 4135SOL     OW16537   4.145   5.377   4.221  0.3550 -0.7654 -0.4481
 4135SOL    HW116538   4.189   5.434   4.159  1.6981  0.3853  1.4699
 4135SOL    HW216539   4.196   5.296   4.220  1.7133  0.0404  0.7028
 4135SOL     MW16540   4.157   5.374   4.213  0.7008 -0.5150 -0.0552
 4136SOL     OW16541   3.428   2.401   2.568  0.0046 -0.0171  0.0158
 4136SOL    HW116542   3.389   2.363   2.490 -0.6018  0.1668  0.2229
 4136SOL    HW216543   3.486   2.332   2.602 -0.8837 -0.6758  0.2436
 4136SOL     MW16544   3.430   2.387   2.563 -0.1867 -0.0779  0.0715
 4137SOL     OW16545   3.073   4.064   0.608 -0.2443  0.0558  0.3498
 4137SOL    HW116546   2.991   4.071   0.657 -0.5787 -0.1016 -0.1802
 4137SOL    HW216547   3.064   3.982   0.558 -0.8638  1.2776 -1.6755
 4137SOL     MW16548   3.061   4.054   0.608 -0.3664  0.1921  0.0227
 4138SOL     OW16549   1.616   1.801   2.251  0.0780  0.1297 -0.0550
 4138SOL    HW116550   1.700   1.843   2.265 -1.3272  2.6661  1.5301
 4138SOL    HW216551   1.605   1.797   2.156  0.6682  2.6559 -0.2730
 4138SOL     MW16552   1.625   1.806   2.241 -0.0263  0.7778  0.1200
 4139SOL     OW16553   4.865   5.093   4.888  0.1827 -0.5550  0.2379
 4139SOL    HW116554   4.891   5.171   4.839 -1.4623  0.1247  0.3814
 4139SOL    HW216555   4.859   5.023   4.823 -0.2629 -0.0730 -0.2430
 4139SOL     MW16556   4.867   5.094   4.874 -0.0849 -0.4063  0.1947
 4140SOL     OW16557   3.789   0.799   2.049  0.0431  0.2976 -0.3256
 4140SOL    HW116558   3.879   0.828   2.031  0.7082 -1.1830  0.4537
 4140SOL    HW216559   3.771   0.832   2.137  0.4788 -0.8152  0.2060
 4140SOL     MW16560   3.799   0.807   2.058  0.1840 -0.0344 -0.1578
 4141SOL     OW16561   3.766   1.334   2.708 -0.0725  0.6914 -0.4435
 4141SOL    HW116562   3.688   1.318   2.655 -1.3993 -1.5767  1.9723
 4141SOL    HW216563   3.747   1.417   2.754 -0.7457  0.5396 -0.4330
 4141SOL     MW16564   3.753   1.343   2.707 -0.3285  0.3816 -0.1329
 4142SOL     OW16565   3.995   2.162   2.653 -0.0530 -0.5201 -0.2539
 4142SOL    HW116566   3.928   2.140   2.588 -0.4079  1.8512 -0.7855
 4142SOL    HW216567   4.075   2.119   2.622 -0.7724 -1.4043 -0.9165
 4142SOL     MW16568   3.997   2.154   2.641 -0.1905 -0.3298 -0.4068
 4143SOL     OW16569   3.495   0.872   1.812 -0.2765 -0.2702  0.8237
 4143SOL    HW116570   3.471   0.794   1.762 -0.1893 -0.6396  1.3525
 4143SOL    HW216571   3.459   0.945   1.761 -0.9326 -0.6978  0.6676
 4143SOL     MW16572   3.487   0.871   1.799 -0.3493 -0.3722  0.8714
 4144SOL     OW16573   2.227   1.551   1.007 -0.9141 -0.2232 -0.0204
 4144SOL    HW116574   2.176   1.472   0.991 -0.6297 -0.1991 -1.0493
 4144SOL    HW216575   2.316   1.520   1.022 -0.6950 -0.0718 -0.9561
 4144SOL     MW16576   2.232   1.537   1.007 -0.8497 -0.2008 -0.2719
 4145SOL     OW16577   0.252   1.628   1.184 -0.9555  0.1594 -0.1114
 4145SOL    HW116578   0.226   1.624   1.091 -1.8001 -0.2119  0.1300
 4145SOL    HW216579   0.335   1.676   1.183  0.2240 -1.7239 -1.3137
 4145SOL     MW16580   0.260   1.633   1.172 -0.9127 -0.1292 -0.2344
 4146SOL     OW16581   5.353   0.106   3.445  0.2747 -0.3202 -0.2825
 4146SOL    HW116582   5.332   0.017   3.475 -1.1566 -0.1831 -0.7902
 4146SOL    HW216583   5.349   0.101   3.350  1.0033  0.1117 -0.3399
 4146SOL     MW16584   5.350   0.094   3.437  0.1847 -0.2474 -0.3549
 4147SOL     OW16585   1.067   3.614   2.081 -0.2390 -0.1557 -0.4055
 4147SOL    HW116586   1.050   3.521   2.092 -0.9182  0.1374  1.3060
 4147SOL    HW216587   1.133   3.634   2.147  1.5026  0.2033 -2.1478
 4147SOL     MW16588   1.073   3.605   2.091 -0.1030 -0.0722 -0.4095
 4148SOL     OW16589   4.230   1.197   0.519  0.5920  0.3527  0.3595
 4148SOL    HW116590   4.307   1.167   0.568  1.6705 -0.9852 -2.0067
 4148SOL    HW216591   4.174   1.119   0.514  0.9367  0.1835 -1.2744
 4148SOL     MW16592   4.233   1.183   0.525  0.7742  0.1598 -0.1526
 4149SOL     OW16593   2.372   5.131   3.493  0.5437  0.3635 -0.1918
 4149SOL    HW116594   2.352   5.038   3.482  0.6110  0.2760  0.3763
 4149SOL    HW216595   2.287   5.174   3.495  0.5357  0.4483 -1.4793
 4149SOL     MW16596   2.359   5.124   3.492  0.5513  0.3631 -0.2839
 4150SOL     OW16597   2.353   2.563   1.196  0.6679  0.3083 -0.1048
 4150SOL    HW116598   2.329   2.617   1.271 -0.9029 -1.3628  0.6782
 4150SOL    HW216599   2.292   2.589   1.127 -0.3596 -0.6768  0.3989
 4150SOL     MW16600   2.342   2.573   1.197  0.3353 -0.0317  0.0599
 4151SOL     OW16601   4.662   3.846   2.378  0.5872  0.5419  0.2039
 4151SOL    HW116602   4.665   3.799   2.462 -0.0848  0.0624 -0.0235
 4151SOL    HW216603   4.720   3.796   2.321  2.0274  1.5747  0.6978
 4151SOL     MW16604   4.670   3.833   2.382  0.6856  0.6127  0.2380
 4152SOL     OW16605   0.031   0.640   3.130 -0.0257  0.0443  0.7998
 4152SOL    HW116606   0.098   0.612   3.068 -0.1109 -0.0772  0.7632
 4152SOL    HW216607  -0.036   0.572   3.126 -0.9637  0.9823 -0.4157
 4152SOL     MW16608   0.031   0.628   3.121 -0.1567  0.1488  0.6395
 4153SOL     OW16609   0.362   0.460   1.880  0.2090  0.0669  0.3009
 4153SOL    HW116610   0.412   0.418   1.950  0.0807 -0.5777  0.0189
 4153SOL    HW216611   0.271   0.452   1.906  0.2078  0.5904  0.4654
 4153SOL     MW16612   0.357   0.453   1.892  0.1924  0.0514  0.2859
 4154SOL     OW16613   3.561   1.100   4.872  0.2436 -0.2634  0.0910
 4154SOL    HW116614   3.563   1.052   4.790 -0.6697 -0.3175  0.0939
 4154SOL    HW216615   3.569   1.033   4.940  1.3076 -0.1930  0.0548
 4154SOL     MW16616   3.562   1.086   4.870  0.2629 -0.2613  0.0867
 4155SOL     OW16617   4.584   1.900   1.239  0.0521  0.6086 -0.1247
 4155SOL    HW116618   4.650   1.833   1.253 -0.7670 -0.3433 -0.7052
 4155SOL    HW216619   4.591   1.957   1.316 -0.7790 -1.4427  1.5496
 4155SOL     MW16620   4.593   1.899   1.251 -0.1592  0.2241  0.0154
 4156SOL     OW16621   3.218   2.907   2.263  0.2379 -0.3697 -0.2941
 4156SOL    HW116622   3.135   2.885   2.220 -0.2016  0.5908  0.0273
 4156SOL    HW216623   3.250   2.825   2.298 -0.4860 -0.7865 -0.5893
 4156SOL     MW16624   3.211   2.894   2.262  0.0890 -0.3001 -0.2908
 4157SOL     OW16625   3.232   0.180   2.818 -0.4090 -0.3073 -0.0222
 4157SOL    HW116626   3.185   0.257   2.849  0.6744  0.5687 -0.4834
 4157SOL    HW216627   3.163   0.120   2.790 -1.3149 -0.0468  1.5381
 4157SOL     MW16628   3.217   0.182   2.818 -0.3863 -0.1618  0.1185
 4158SOL     OW16629   4.378   3.053   4.286  0.0252 -0.3550  0.1810
 4158SOL    HW116630   4.366   3.047   4.381  0.0623  1.9676  0.3870
 4158SOL    HW216631   4.294   3.088   4.254  0.8036  1.1451 -0.3068
 4158SOL     MW16632   4.365   3.057   4.294  0.1296  0.1344  0.1449
 4159SOL     OW16633   4.952   3.469   4.049 -0.8139  0.0498 -0.0303
 4159SOL    HW116634   5.034   3.519   4.059 -0.4598 -0.3703 -0.7674
 4159SOL    HW216635   4.897   3.500   4.121  0.6085 -0.9030  1.5734
 4159SOL     MW16636   4.956   3.480   4.060 -0.5865 -0.1260  0.0806
 4160SOL     OW16637   3.995   3.985   1.584  0.2260  0.1055  0.2779
 4160SOL    HW116638   3.980   3.901   1.628 -0.0074 -0.7739 -1.4131
 4160SOL    HW216639   3.922   3.993   1.522 -0.4223  2.1458  1.2098
 4160SOL     MW16640   3.984   3.976   1.582  0.1131  0.2541  0.1807
 4161SOL     OW16641   1.207   1.309   4.567  0.2081  0.0739  0.0028
 4161SOL    HW116642   1.183   1.218   4.584  0.0365  0.1118 -0.0342
 4161SOL    HW216643   1.218   1.314   4.472  1.3737 -0.1875  0.1102
 4161SOL     MW16644   1.205   1.298   4.557  0.3353  0.0453  0.0118
 4162SOL     OW16645   4.957   5.038   0.394  0.3161 -0.5482 -0.7769
 4162SOL    HW116646   4.923   5.059   0.481 -1.6674 -1.1378 -1.3786
 4162SOL    HW216647   4.948   4.943   0.387 -2.3418 -0.2309 -2.6987
 4162SOL     MW16648   4.952   5.029   0.404 -0.2781 -0.5831 -1.1000
 4163SOL     OW16649   0.377   2.713   0.068 -0.2670 -0.2610  0.3389
 4163SOL    HW116650   0.444   2.705  -0.001 -1.5771 -2.3875 -0.7884
 4163SOL    HW216651   0.327   2.791   0.044  1.8721  1.5694  1.3729
 4163SOL     MW16652   0.379   2.722   0.056 -0.1609 -0.2989  0.3269
 4164SOL     OW16653   0.842   1.045   1.816  0.4908 -0.3313 -0.0790
 4164SOL    HW116654   0.815   1.046   1.908 -4.5820  2.4280 -1.1999
 4164SOL    HW216655   0.784   0.980   1.776  0.5434  0.6060 -1.7330
 4164SOL     MW16656   0.831   1.037   1.823 -0.1518  0.1419 -0.4342
 4165SOL     OW16657   1.929   0.854   0.706  0.1126  0.4394 -0.0860
 4165SOL    HW116658   1.980   0.855   0.787  0.6945  2.1868 -0.4464
 4165SOL    HW216659   1.991   0.825   0.639  0.1212  0.7693 -0.2190
 4165SOL     MW16660   1.943   0.850   0.708  0.1882  0.7053 -0.1491
 4166SOL     OW16661   3.039   2.687   1.751  0.0165 -0.0375 -0.4838
 4166SOL    HW116662   3.044   2.779   1.728  2.2627 -0.0048 -0.0306
 4166SOL    HW216663   2.989   2.686   1.833  2.6145  1.1786  1.2395
 4166SOL     MW16664   3.033   2.698   1.758  0.6366  0.1224 -0.2052
 4167SOL     OW16665   5.343   5.428   2.574 -0.3992  0.6100  0.0216
 4167SOL    HW116666   5.399   5.358   2.607 -0.4834  0.4441 -0.1853
 4167SOL    HW216667   5.395   5.507   2.583 -0.0831  0.4410 -0.2816
 4167SOL     MW16668   5.356   5.429   2.579 -0.3695  0.5671 -0.0437
 4168SOL     OW16669   2.150   0.634   3.028 -0.4639 -0.8074 -0.0666
 4168SOL    HW116670   2.136   0.646   2.934 -0.5530  1.4838  0.1781
 4168SOL    HW216671   2.116   0.714   3.067  0.1995 -1.4251  1.8697
 4168SOL     MW16672   2.144   0.646   3.021 -0.3904 -0.5932  0.2126
 4169SOL     OW16673   4.077   3.863   4.769  0.4611 -0.0673  0.6535
 4169SOL    HW116674   4.152   3.915   4.740  0.1577  0.2181  0.3912
 4169SOL    HW216675   4.053   3.811   4.692  0.2563 -0.0080  0.6787
 4169SOL     MW16676   4.084   3.863   4.755  0.3960 -0.0232  0.6231
 4170SOL     OW16677   2.086   5.365   3.991  0.0944 -0.6338  0.2820
 4170SOL    HW116678   2.053   5.449   4.024 -0.6597 -0.9609  0.3881
 4170SOL    HW216679   2.153   5.389   3.928 -0.6358  0.0809 -0.2482
 4170SOL     MW16680   2.090   5.379   3.987 -0.0956 -0.5842  0.2277
 4171SOL     OW16681   1.410   4.686   5.086  0.2326  0.8163  0.0049
 4171SOL    HW116682   1.463   4.619   5.128 -1.3315  0.5650  1.7470
 4171SOL    HW216683   1.428   4.766   5.136 -0.7427  0.7961  0.4148
 4171SOL     MW16684   1.419   4.687   5.098 -0.0925  0.7816  0.2804
 4172SOL     OW16685   0.354   1.197   2.823 -0.1561  0.2411  0.1090
 4172SOL    HW116686   0.365   1.124   2.762  1.1435  0.3242  0.2104
 4172SOL    HW216687   0.375   1.275   2.772 -0.9332  0.4933  0.1665
 4172SOL     MW16688   0.358   1.198   2.809 -0.0892  0.2841  0.1293
 4173SOL     OW16689   0.692   5.405   3.070 -0.1423  0.5189  0.0872
 4173SOL    HW116690   0.669   5.375   2.982  2.1833 -1.8562  0.1802
 4173SOL    HW216691   0.660   5.335   3.128 -0.1625  1.2415  0.9655
 4173SOL     MW16692   0.685   5.392   3.066  0.1528  0.3073  0.2116
 4174SOL     OW16693   3.076   4.818   1.097  0.7863  0.2714  0.0431
 4174SOL    HW116694   3.024   4.742   1.121  1.5521 -0.0797  0.6373
 4174SOL    HW216695   3.044   4.844   1.011  0.4561 -0.6660 -0.1196
 4174SOL     MW16696   3.065   4.812   1.089  0.8420  0.1065  0.0983
 4175SOL     OW16697   5.296   3.938   5.437  0.3438 -0.0219  0.3772
 4175SOL    HW116698   5.254   4.002   5.379 -0.2980 -1.1441 -0.4565
 4175SOL    HW216699   5.225   3.908   5.494  0.3374 -0.8365 -0.0366
 4175SOL     MW16700   5.281   3.942   5.437  0.2608 -0.2699  0.2175
 4176SOL     OW16701   3.965   5.133   4.556 -0.1304  0.6749  0.2468
 4176SOL    HW116702   3.943   5.125   4.464 -0.1584 -1.2339  0.3818
 4176SOL    HW216703   3.992   5.225   4.567 -1.0733  1.1847 -1.4220
 4176SOL     MW16704   3.966   5.144   4.546 -0.2547  0.4958  0.0505
 4177SOL     OW16705   0.566   4.009   1.535 -0.1618 -0.5392 -0.3033
 4177SOL    HW116706   0.563   3.960   1.617 -0.1214  1.0412  0.6689
 4177SOL    HW216707   0.474   4.028   1.515 -0.1872 -1.1260 -0.7567
 4177SOL     MW16708   0.553   4.005   1.543 -0.1599 -0.4120 -0.2369
 4178SOL     OW16709   2.444   3.187   3.578  0.4385 -0.0663 -0.4447
 4178SOL    HW116710   2.393   3.190   3.496 -0.2908 -2.3424 -0.1349
 4178SOL    HW216711   2.392   3.132   3.636  1.5349  0.5435  1.1602
 4178SOL     MW16712   2.431   3.181   3.575  0.4855 -0.2796 -0.1996
 4179SOL     OW16713   3.286   5.367   3.215 -0.8141 -0.1791  0.0877
 4179SOL    HW116714   3.360   5.375   3.156 -0.8210  0.6681  0.1919
 4179SOL    HW216715   3.300   5.283   3.259 -0.4598 -0.4985 -0.6209
 4179SOL     MW16716   3.297   5.357   3.213 -0.7696 -0.1116  0.0103
 4180SOL     OW16717   0.606   3.630   0.634  0.1370  0.0479  0.1359
 4180SOL    HW116718   0.571   3.540   0.629  0.3011 -0.1775  2.1830
 4180SOL    HW216719   0.534   3.685   0.601 -1.0943 -0.6410  1.5286
 4180SOL     MW16720   0.592   3.625   0.629  0.0004 -0.0691  0.5762
 4181SOL     OW16721   2.993   3.797   0.830 -0.4538 -0.1046 -0.3337
 4181SOL    HW116722   2.918   3.844   0.867  0.0582  0.5594 -0.1181
 4181SOL    HW216723   2.956   3.744   0.760 -1.1968 -0.1442  0.0791
 4181SOL     MW16724   2.979   3.797   0.826 -0.4834 -0.0247 -0.2533
 4182SOL     OW16725   3.074   0.184   0.564  0.2102 -0.4883 -0.2314
 4182SOL    HW116726   3.103   0.164   0.653  1.7431  1.1754 -0.2968
 4182SOL    HW216727   3.129   0.129   0.508 -0.1771 -0.9217 -0.1918
 4182SOL     MW16728   3.085   0.175   0.568  0.3569 -0.3308 -0.2347
 4183SOL     OW16729   2.093   4.325   0.126  0.0200 -0.3429 -0.2222
 4183SOL    HW116730   2.041   4.245   0.117 -0.8950 -0.1856  2.7283
 4183SOL    HW216731   2.060   4.383   0.057 -1.4484 -1.4094 -0.4587
 4183SOL     MW16732   2.082   4.322   0.116 -0.2851 -0.4593  0.1252
 4184SOL     OW16733   3.547   1.185   3.703  0.0810  0.2052 -0.0482
 4184SOL    HW116734   3.466   1.135   3.712  0.7298 -0.9707 -0.4941
 4184SOL    HW216735   3.594   1.169   3.785 -0.4925  1.6057  0.5903
 4184SOL     MW16736   3.543   1.176   3.714  0.0907  0.2339 -0.0236
 4185SOL     OW16737   3.865   4.126   4.341  0.2885  0.4195 -0.0457
 4185SOL    HW116738   3.875   4.196   4.277  2.8314 -0.4781 -0.7599
 4185SOL    HW216739   3.785   4.080   4.316  1.2221  0.0774 -2.6241
 4185SOL     MW16740   3.856   4.129   4.330  0.7335  0.2608 -0.4672
 4186SOL     OW16741   0.071   0.109   2.217  0.0023 -0.1605 -0.4702
 4186SOL    HW116742   0.004   0.170   2.188 -0.5443  0.0421  1.1422
 4186SOL    HW216743   0.025   0.026   2.227  0.5405 -0.6316 -1.7371
 4186SOL     MW16744   0.057   0.106   2.215  0.0012 -0.1949 -0.4259
 4187SOL     OW16745   4.688   0.080   1.454 -0.7699 -0.4627  0.2421
 4187SOL    HW116746   4.626   0.035   1.396 -0.1564 -0.3995 -0.4778
 4187SOL    HW216747   4.755   0.115   1.395 -0.8070  0.7130  0.8647
 4187SOL     MW16748   4.689   0.079   1.439 -0.6961 -0.3041  0.2296
 4188SOL     OW16749   4.882   3.115   1.973 -1.1837  0.1389 -0.2994
 4188SOL    HW116750   4.873   3.129   2.067  1.6129  2.1249 -0.1907
 4188SOL    HW216751   4.904   3.023   1.964 -0.8931  0.0631  1.0549
 4188SOL     MW16752   4.884   3.105   1.984 -0.7885  0.3834 -0.1122
 4189SOL     OW16753   0.213   1.657   4.834  0.2997  0.6767  0.2256
 4189SOL    HW116754   0.137   1.614   4.873 -0.0420 -0.6858 -1.8343
 4189SOL    HW216755   0.234   1.727   4.896 -1.3138 -0.2156  1.9054
 4189SOL     MW16756   0.206   1.660   4.847  0.0494  0.3881  0.1769
 4190SOL     OW16757   3.690   1.815   0.116 -0.1771 -0.2136 -0.1750
 4190SOL    HW116758   3.729   1.821   0.029  2.5445  0.2962  0.9771
 4190SOL    HW216759   3.668   1.722   0.126  1.3298 -0.6532 -0.7063
 4190SOL     MW16760   3.692   1.804   0.106  0.3642 -0.2046 -0.0955
 4191SOL     OW16761   4.837   0.164   2.381 -0.1299 -0.6522  0.3672
 4191SOL    HW116762   4.890   0.137   2.456  0.1162 -0.7865  0.1444
 4191SOL    HW216763   4.900   0.196   2.317 -0.2262 -1.8555 -0.3411
 4191SOL     MW16764   4.852   0.165   2.383 -0.1107 -0.8234  0.2480
 4192SOL     OW16765   4.055   3.277   3.934  0.0678  0.3330  0.4155
 4192SOL    HW116766   3.978   3.306   3.982 -0.4442 -1.3986  0.7198
 4192SOL    HW216767   4.032   3.189   3.902  1.6776  0.0265 -0.0093
 4192SOL     MW16768   4.042   3.269   3.936  0.2083  0.0721  0.4001
 4193SOL     OW16769   0.780   2.517   2.379  0.2749  0.1526  0.2795
 4193SOL    HW116770   0.728   2.482   2.307 -0.2594  2.2843 -0.4321
 4193SOL    HW216771   0.861   2.546   2.338  0.7543 -0.2852  0.8777
 4193SOL     MW16772   0.784   2.516   2.365  0.2678  0.3694  0.2650
 4194SOL     OW16773   3.956   3.870   4.359 -0.0671  0.1220 -0.7524
 4194SOL    HW116774   4.038   3.860   4.310  0.7521  0.1397  0.5534
 4194SOL    HW216775   3.936   3.963   4.355  0.4393  0.2546 -0.4062
 4194SOL     MW16776   3.964   3.880   4.352  0.1026  0.1412 -0.5409
 4195SOL     OW16777   3.231   4.467   0.467  0.2921 -0.2834  0.2574
 4195SOL    HW116778   3.284   4.524   0.523 -0.1717 -0.3293  0.7534
 4195SOL    HW216779   3.148   4.458   0.514 -0.3954  0.3000 -0.7972
 4195SOL     MW16780   3.227   4.474   0.481  0.1447 -0.2146  0.1859
 4196SOL     OW16781   1.061   4.286   2.072 -0.5990  0.3279 -0.0351
 4196SOL    HW116782   0.999   4.336   2.124 -0.0690  1.2707 -0.2809
 4196SOL    HW216783   1.036   4.305   1.981 -0.3243  0.2356 -0.1303
 4196SOL     MW16784   1.050   4.295   2.067 -0.4960  0.4368 -0.0788
 4197SOL     OW16785   0.070   3.571   4.844 -0.1027  0.0392 -0.0965
 4197SOL    HW116786   0.128   3.496   4.833 -0.0286  0.0562  0.1846
 4197SOL    HW216787   0.129   3.647   4.843 -0.2412  0.1621 -1.1563
 4197SOL     MW16788   0.085   3.571   4.842 -0.1110  0.0571 -0.1962
 4198SOL     OW16789   3.294   2.765   1.983 -0.0306 -0.5606 -0.1572
 4198SOL    HW116790   3.223   2.704   2.006 -0.6026 -0.6349 -1.9263
 4198SOL    HW216791   3.250   2.849   1.973 -0.1791 -0.8682 -2.6246
 4198SOL     MW16792   3.279   2.768   1.985 -0.1228 -0.6095 -0.6995
 4199SOL     OW16793   3.846   0.944   2.903  0.1352  0.2051  0.0790
 4199SOL    HW116794   3.900   0.952   2.982 -0.8496  1.0187  0.6926
 4199SOL    HW216795   3.910   0.928   2.833  1.2963  2.0146  0.6329
 4199SOL     MW16796   3.861   0.943   2.904  0.1578  0.5409  0.2285
 4200SOL     OW16797   0.165   0.792   2.657  0.1726 -0.1262  0.0054
 4200SOL    HW116798   0.083   0.835   2.684  0.9204  0.0708  2.1418
 4200SOL    HW216799   0.140   0.741   2.581 -2.0135 -0.2418  0.7027
 4200SOL     MW16800   0.151   0.791   2.651 -0.0115 -0.1157  0.3681
 4201SOL     OW16801   3.987   2.936   1.251  0.0706  0.2829 -0.8920
 4201SOL    HW116802   4.011   3.020   1.290 -0.8321 -1.0246  2.9173
 4201SOL    HW216803   3.907   2.955   1.201 -1.2367  1.4657  1.4597
 4201SOL     MW16804   3.980   2.949   1.249 -0.2123  0.2669 -0.1033
 4202SOL     OW16805   3.122   1.985   3.539  0.0312  0.2941 -0.9065
 4202SOL    HW116806   3.170   1.972   3.622 -0.3678 -0.0491 -0.7225
 4202SOL    HW216807   3.037   2.020   3.566  0.4435  1.6086 -1.2879
 4202SOL     MW16808   3.117   1.988   3.553  0.0329  0.4185 -0.9318
 4203SOL     OW16809   2.846   1.315   5.454  0.0614  0.0907  0.1058
 4203SOL    HW116810   2.829   1.265   5.373  0.0857 -1.1819  0.8570
 4203SOL    HW216811   2.941   1.326   5.455  0.1156 -0.3472  0.2044
 4203SOL     MW16812   2.856   1.310   5.443  0.0714 -0.1283  0.2146
 4204SOL     OW16813   2.359   4.350   0.521 -0.4313 -1.0278 -0.1566
 4204SOL    HW116814   2.279   4.306   0.495 -0.2115 -0.4795 -1.8653
 4204SOL    HW216815   2.344   4.442   0.498  0.7969 -0.9710 -0.7954
 4204SOL     MW16816   2.347   4.356   0.515 -0.2460 -0.9503 -0.4571
 4205SOL     OW16817   3.039   2.681   3.829 -0.0379  0.0916  0.2132
 4205SOL    HW116818   3.051   2.771   3.859 -0.1632 -0.0215  0.6096
 4205SOL    HW216819   3.073   2.681   3.740 -1.4570  0.8926 -0.3524
 4205SOL     MW16820   3.045   2.692   3.822 -0.2356  0.1797  0.1915
 4206SOL     OW16821   4.324   1.120   5.307  0.1107  0.3286 -0.4887
 4206SOL    HW116822   4.335   1.074   5.225  0.3764 -0.6857  0.1037
 4206SOL    HW216823   4.350   1.210   5.288  2.1593 -0.3336 -1.0124
 4206SOL     MW16824   4.329   1.126   5.294  0.4070  0.1140 -0.4799
 4207SOL     OW16825   1.104   5.432   4.854  0.6231  0.2624  0.6082
 4207SOL    HW116826   1.075   5.522   4.873  0.0395  0.3060 -0.4615
 4207SOL    HW216827   1.197   5.442   4.833  1.1138  0.3138  2.5914
 4207SOL     MW16828   1.112   5.445   4.854  0.6112  0.2745  0.7252
 4208SOL     OW16829   4.568   0.874   1.151 -0.4795  0.5331 -0.3593
 4208SOL    HW116830   4.572   0.887   1.245 -0.3563  1.7616 -0.5170
 4208SOL    HW216831   4.638   0.930   1.116  2.2050 -2.8623 -0.9522
 4208SOL     MW16832   4.578   0.883   1.158 -0.1201  0.2557 -0.4554
 4209SOL     OW16833   1.893   4.183   2.362 -0.2593 -0.1185 -0.1222
 4209SOL    HW116834   1.858   4.094   2.367 -2.9804  0.9021  0.5652
 4209SOL    HW216835   1.859   4.227   2.440  1.4440  1.4186 -0.1789
 4209SOL     MW16836   1.884   4.177   2.373 -0.3896  0.2089 -0.0414
 4210SOL     OW16837   4.196   3.251   1.201 -0.3482 -1.0704 -0.2619
 4210SOL    HW116838   4.149   3.216   1.277 -0.1610 -2.8287 -0.9081
 4210SOL    HW216839   4.282   3.276   1.236 -0.9594  0.0680  0.4841
 4210SOL     MW16840   4.201   3.250   1.216 -0.4025 -1.1497 -0.2491
 4211SOL     OW16841   4.629   5.340   4.063 -0.2142  0.2152  0.8303
 4211SOL    HW116842   4.541   5.378   4.057 -0.5324 -0.0214  2.9904
 4211SOL    HW216843   4.686   5.404   4.020 -1.1629  1.5482  1.4758
 4211SOL     MW16844   4.625   5.353   4.057 -0.3764  0.3556  1.1894
 4212SOL     OW16845   0.565   2.719   0.260 -0.5925  0.1139  0.0330
 4212SOL    HW116846   0.509   2.715   0.183  1.2988  0.2837 -1.4352
 4212SOL    HW216847   0.540   2.800   0.305 -0.8004  0.7313 -1.1638
 4212SOL     MW16848   0.555   2.729   0.256 -0.3770  0.2147 -0.3081
 4213SOL     OW16849   0.002   2.457   2.292  0.0680  0.5486  0.1172
 4213SOL    HW116850   0.052   2.376   2.284 -0.6660  0.1821 -1.1248
 4213SOL    HW216851  -0.017   2.483   2.201 -1.5191  0.9567  0.5207
 4213SOL     MW16852   0.006   2.450   2.279 -0.2291  0.5539  0.0099
 4214SOL     OW16853   1.903   2.856   2.805 -0.2664 -0.0450 -0.4186
 4214SOL    HW116854   1.893   2.797   2.731 -0.8770  0.9240 -1.1366
 4214SOL    HW216855   1.818   2.856   2.849 -0.4819  0.7859 -0.8132
 4214SOL     MW16856   1.891   2.849   2.801 -0.3722  0.1854 -0.5611
 4215SOL     OW16857   2.011   5.375   1.791 -0.1467  0.2532  0.3963
 4215SOL    HW116858   2.030   5.333   1.708 -0.8946 -0.7738  0.7224
 4215SOL    HW216859   2.090   5.424   1.813 -0.4087  1.6685 -1.5621
 4215SOL     MW16860   2.023   5.376   1.783 -0.2760  0.3029  0.1874
 4216SOL     OW16861   0.608   0.043   3.868  0.6651 -0.1027 -0.0590
 4216SOL    HW116862   0.623   0.117   3.926  1.1965 -0.9745  0.9532
 4216SOL    HW216863   0.580   0.082   3.785 -1.9372  1.1410  1.2808
 4216SOL     MW16864   0.606   0.057   3.865  0.4000 -0.0551  0.2421
 4217SOL     OW16865   3.082   2.116   1.991 -0.0330 -0.5418  0.0017
 4217SOL    HW116866   3.100   2.210   1.988 -1.2501 -0.2865  0.0299
 4217SOL    HW216867   3.152   2.077   1.939  0.8699  0.3105  0.5398
 4217SOL     MW16868   3.093   2.123   1.984 -0.0733 -0.4000  0.0742
 4218SOL     OW16869   4.965   1.445   1.137  0.3507 -0.1656 -0.1540
 4218SOL    HW116870   4.985   1.465   1.229 -0.5339 -0.0152  0.0247
 4218SOL    HW216871   4.901   1.374   1.142 -0.9558  0.9176 -0.5652
 4218SOL     MW16872   4.959   1.439   1.150  0.0702 -0.0077 -0.1838
 4219SOL     OW16873   3.563   3.314   3.932  0.3543 -0.1462 -0.2401
 4219SOL    HW116874   3.585   3.348   3.845  1.2963 -2.2831 -0.9190
 4219SOL    HW216875   3.488   3.366   3.960  0.2427  0.8364 -2.1856
 4219SOL     MW16876   3.557   3.325   3.925  0.4606 -0.2939 -0.5761
 4220SOL     OW16877   0.248   3.758   4.558  0.6794 -0.2492 -0.0064
 4220SOL    HW116878   0.228   3.665   4.556  0.3822 -0.1871  0.0846
 4220SOL    HW216879   0.197   3.795   4.486 -0.9288  0.1855  1.3035
 4220SOL     MW16880   0.239   3.751   4.548  0.4355 -0.1856  0.1729
 4221SOL     OW16881   4.881   0.955   2.894 -0.0671  0.0222  0.0409
 4221SOL    HW116882   4.955   1.005   2.928  0.5096 -0.4083 -0.5645
 4221SOL    HW216883   4.862   0.891   2.963  0.0781  0.1769  0.2265
 4221SOL     MW16884   4.888   0.953   2.907  0.0253 -0.0131 -0.0128
 4222SOL     OW16885   1.750   5.157   1.607 -0.5610  0.2686  0.0528
 4222SOL    HW116886   1.686   5.111   1.553 -0.1511  0.6824 -0.8206
 4222SOL    HW216887   1.783   5.090   1.667  1.3184 -1.1652 -2.3283
 4222SOL     MW16888   1.746   5.142   1.608 -0.2679  0.1381 -0.3638
 4223SOL     OW16889   4.563   3.235   0.600 -0.1910 -0.0801 -0.4067
 4223SOL    HW116890   4.581   3.155   0.550 -1.3928  0.0503 -1.0863
 4223SOL    HW216891   4.536   3.204   0.686 -2.4456 -0.5257 -1.2235
 4223SOL     MW16892   4.562   3.221   0.604 -0.6334 -0.1205 -0.5983
 4224SOL     OW16893   3.176   3.216   3.265 -0.0631 -0.0974 -0.0523
 4224SOL    HW116894   3.166   3.275   3.339 -0.6700 -0.7901  0.4449
 4224SOL    HW216895   3.092   3.169   3.261  0.3326 -0.7846 -0.5377
 4224SOL     MW16896   3.164   3.217   3.274 -0.0901 -0.2741 -0.0508
 4225SOL     OW16897   5.170   3.729   1.480  0.4242 -0.2747 -0.3229
 4225SOL    HW116898   5.108   3.734   1.407  0.5048  1.3132 -0.3279
 4225SOL    HW216899   5.150   3.805   1.534  1.1164 -0.8020  0.7154
 4225SOL     MW16900   5.160   3.740   1.477  0.5231 -0.1389 -0.1906
 4226SOL     OW16901   2.802   0.929   3.362  0.3323  0.0480  0.4858
 4226SOL    HW116902   2.753   0.882   3.294  0.9568 -1.0760  0.7933
 4226SOL    HW216903   2.887   0.885   3.364  0.4329  0.2849  1.7753
 4226SOL     MW16904   2.806   0.917   3.353  0.4251 -0.0656  0.6902
 4227SOL     OW16905   5.100   0.896   2.371 -0.3829 -0.4047 -0.0781
 4227SOL    HW116906   5.095   0.894   2.276 -2.0768  1.4487 -0.1041
 4227SOL    HW216907   5.061   0.980   2.395  1.0929 -0.3008  2.2114
 4227SOL     MW16908   5.094   0.906   2.362 -0.4108 -0.1541  0.2116
 4228SOL     OW16909   3.512   0.737   2.432 -0.2220 -1.0732  0.3733
 4228SOL    HW116910   3.515   0.814   2.488  0.5463 -0.4899 -0.4414
 4228SOL    HW216911   3.426   0.698   2.450 -1.5746  1.1458 -0.7292
 4228SOL     MW16912   3.501   0.742   2.442 -0.2968 -0.7145  0.1279
 4229SOL     OW16913   4.017   2.599   4.875 -0.5978  0.2292 -0.2965
 4229SOL    HW116914   3.938   2.605   4.928 -1.0893 -2.8522 -0.5276
 4229SOL    HW216915   4.070   2.532   4.919  1.9906  2.2587 -0.0882
 4229SOL     MW16916   4.014   2.591   4.887 -0.3294  0.0946 -0.2994
 4230SOL     OW16917   5.281   0.412   1.793 -0.0235 -0.4305  0.0732
 4230SOL    HW116918   5.324   0.329   1.813 -2.7472 -2.0624 -0.2977
 4230SOL    HW216919   5.194   0.404   1.833 -0.6679  1.9217 -0.6882
 4230SOL     MW16920   5.275   0.401   1.801 -0.4547 -0.3383 -0.0717
 4231SOL     OW16921   2.446   4.298   3.641 -0.5630 -0.3833  0.3064
 4231SOL    HW116922   2.365   4.277   3.594  1.0068 -0.2731 -2.6334
 4231SOL    HW216923   2.465   4.389   3.616  0.6296 -0.5048  0.7402
 4231SOL     MW16924   2.438   4.307   3.632 -0.2094 -0.3848 -0.0144
 4232SOL     OW16925   1.205   0.874   2.695 -0.4239  0.3149  0.3994
 4232SOL    HW116926   1.234   0.800   2.643 -0.6647  0.4358  0.0887
 4232SOL    HW216927   1.158   0.835   2.769  1.5190  0.0634  1.5733
 4232SOL     MW16928   1.202   0.860   2.698 -0.2060  0.2982  0.5099
 4233SOL     OW16929   0.869   4.783   3.836  0.0381 -0.1287 -0.0071
 4233SOL    HW116930   0.847   4.871   3.866  1.8201  0.1376  0.6072
 4233SOL    HW216931   0.849   4.785   3.742 -2.1016  0.1718  0.3924
 4233SOL     MW16932   0.864   4.795   3.828 -0.0077 -0.0562  0.1226
 4234SOL     OW16933   4.958   4.642   2.740  0.0465 -0.1867 -0.3117
 4234SOL    HW116934   4.937   4.685   2.657 -1.0903  0.0733  0.0967
 4234SOL    HW216935   4.941   4.549   2.724 -1.7484  0.0432  0.0810
 4234SOL     MW16936   4.953   4.635   2.728 -0.3288 -0.1240 -0.2091
 4235SOL     OW16937   1.433   1.545   0.648  0.3493 -0.1877 -0.1672
 4235SOL    HW116938   1.457   1.494   0.571 -1.3325  0.5033 -1.2063
 4235SOL    HW216939   1.338   1.535   0.655  0.0251  2.3552 -0.1290
 4235SOL     MW16940   1.424   1.537   0.639  0.0925  0.2262 -0.2953
 4236SOL     OW16941   5.067   3.954   2.818  0.2568  0.5736  0.6173
 4236SOL    HW116942   4.972   3.960   2.821  0.0653 -0.6821 -1.2434
 4236SOL    HW216943   5.086   3.902   2.740  2.4590  0.3102  1.2375
 4236SOL     MW16944   5.057   3.948   2.809  0.5142  0.3791  0.4585
 4237SOL     OW16945   0.106   4.264   1.311 -0.1660 -0.0437  0.2009
 4237SOL    HW116946   0.177   4.324   1.288  0.3505 -0.4909  0.5984
 4237SOL    HW216947   0.097   4.274   1.406 -1.7526  1.2147 -0.0400
 4237SOL     MW16948   0.114   4.273   1.320 -0.3030  0.0601  0.2209
 4238SOL     OW16949   3.421   0.562   2.035  0.3873 -0.2117 -0.0553
 4238SOL    HW116950   3.333   0.593   2.014 -0.5040 -0.7684  2.5366
 4238SOL    HW216951   3.429   0.478   1.990 -0.1507  0.1477 -0.8269
 4238SOL     MW16952   3.411   0.555   2.027  0.2043 -0.2370  0.1777
 4239SOL     OW16953   0.339   5.249   0.796 -0.3495  0.0596  0.2284
 4239SOL    HW116954   0.264   5.245   0.736  0.0071  2.4112 -0.4722
 4239SOL    HW216955   0.415   5.238   0.739 -0.0920 -1.7368  0.8584
 4239SOL     MW16956   0.339   5.247   0.781 -0.2709  0.1307  0.2193
 4240SOL     OW16957   4.029   4.348   0.453  0.5114 -0.1353 -0.5232
 4240SOL    HW116958   4.111   4.397   0.459  0.2958  0.2058 -0.3141
 4240SOL    HW216959   4.011   4.322   0.543 -0.8913  1.9249 -0.1349
 4240SOL     MW16960   4.037   4.351   0.465  0.3042  0.1721 -0.4467
 4241SOL     OW16961   0.086   4.805   5.370  0.6638  0.2640  0.2872
 4241SOL    HW116962   0.036   4.730   5.336  2.0331 -0.3543 -0.4285
 4241SOL    HW216963   0.031   4.881   5.351  0.8857 -0.1645 -2.4251
 4241SOL     MW16964   0.072   4.805   5.364  0.8675  0.1300 -0.1516
 4242SOL     OW16965   2.988   0.762   3.461 -0.2172 -0.2181 -0.1353
 4242SOL    HW116966   2.926   0.723   3.522  0.7015 -1.2640  0.1537
 4242SOL    HW216967   2.988   0.702   3.386 -0.9237  0.7621 -0.9626
 4242SOL     MW16968   2.980   0.749   3.459 -0.1900 -0.2265 -0.2043
 4243SOL     OW16969   2.117   5.056   3.804  0.1469 -0.2252 -0.1161
 4243SOL    HW116970   2.035   5.093   3.836  0.8462 -0.4143  2.0970
 4243SOL    HW216971   2.098   4.963   3.791  0.3402 -0.6019  1.9220
 4243SOL     MW16972   2.104   5.049   3.806  0.2612 -0.2977  0.4281
 4244SOL     OW16973   0.074   2.244   4.171 -0.0634  0.4275 -0.1068
 4244SOL    HW116974   0.042   2.288   4.093  0.0979 -0.4687 -0.6838
 4244SOL    HW216975   0.158   2.207   4.145 -0.9267 -1.6145 -0.1241
 4244SOL     MW16976   0.081   2.245   4.158 -0.1533  0.0513 -0.1829
 4245SOL     OW16977   1.580   1.406   0.831  0.1944  0.0216  0.3837
 4245SOL    HW116978   1.656   1.378   0.780 -0.4157 -0.2959 -0.3771
 4245SOL    HW216979   1.539   1.474   0.777 -0.5729 -0.4596  0.3490
 4245SOL     MW16980   1.585   1.411   0.818  0.0181 -0.0806  0.2819
 4246SOL     OW16981   0.177   4.933   1.506  0.6441 -0.1353  0.0131
 4246SOL    HW116982   0.250   4.887   1.547  0.7616  0.7638  0.8526
 4246SOL    HW216983   0.219   5.004   1.456  0.3260  0.7719  1.0109
 4246SOL     MW16984   0.192   4.936   1.505  0.6184  0.0960  0.2483
 4247SOL     OW16985   2.221   2.243   3.021 -0.0201  0.3744  0.1422
 4247SOL    HW116986   2.217   2.210   3.111  0.3036  1.7858  0.7020
 4247SOL    HW216987   2.186   2.332   3.027  2.0270  1.2831 -0.7317
 4247SOL     MW16988   2.216   2.250   3.033  0.2834  0.6714  0.1020
 4248SOL     OW16989   2.071   5.131   3.558  0.1770 -0.2700 -0.2780
 4248SOL    HW116990   2.095   5.102   3.646 -0.0641  0.6514  0.0983
 4248SOL    HW216991   2.078   5.226   3.561  0.7419 -0.2498 -1.4322
 4248SOL     MW16992   2.075   5.139   3.569  0.2184 -0.1495 -0.3776
 4249SOL     OW16993   4.075   0.993   3.995 -0.4795 -0.0104 -0.1082
 4249SOL    HW116994   4.090   0.902   4.019 -0.6997  0.4640  2.0782
 4249SOL    HW216995   4.144   1.014   3.933 -0.9361 -1.8729 -1.3222
 4249SOL     MW16996   4.085   0.984   3.990 -0.5661 -0.1881  0.0163
 4250SOL     OW16997   4.064   0.915   0.741  0.3004  0.1324  0.2322
 4250SOL    HW116998   4.059   0.955   0.653 -1.0941  0.1066  0.2693
 4250SOL    HW216999   3.982   0.942   0.783  1.2664  0.7179  1.7910
 4250SOL     MW17000   4.053   0.924   0.735  0.2456  0.2040  0.4365
 4251SOL     OW17001   0.845   2.927   1.515  0.5285  0.2897  0.6543
 4251SOL    HW117002   0.806   2.885   1.439  0.1116 -0.4765  1.2815
 4251SOL    HW217003   0.889   2.857   1.562  0.3514  0.6543  1.3825
 4251SOL     MW17004   0.845   2.913   1.511  0.4525  0.2383  0.8278
 4252SOL     OW17005   2.242   4.196   3.487 -0.0853  0.3493  0.0902
 4252SOL    HW117006   2.147   4.196   3.474  0.0778  1.7522 -1.3555
 4252SOL    HW217007   2.272   4.119   3.438 -0.3522  0.7020 -0.6437
 4252SOL     MW17008   2.234   4.186   3.479 -0.0986  0.5741 -0.1888
 4253SOL     OW17009   4.219   2.095   4.229 -0.5574 -0.3668  0.0781
 4253SOL    HW117010   4.203   2.146   4.150  1.6170 -1.9178 -1.4665
 4253SOL    HW217011   4.155   2.024   4.225 -0.3057 -0.5686 -0.4074
 4253SOL     MW17012   4.209   2.093   4.219 -0.2468 -0.5912 -0.1818
 4254SOL     OW17013   4.879   3.423   2.404 -0.0368 -0.1033 -0.6515
 4254SOL    HW117014   4.829   3.388   2.478  0.6070  0.9986  0.3361
 4254SOL    HW217015   4.965   3.443   2.440  0.0342  1.2444 -1.4881
 4254SOL     MW17016   4.883   3.421   2.418  0.0547  0.2103 -0.6321
 4255SOL     OW17017   0.993   3.333   2.055 -0.3436  0.1219 -0.2753
 4255SOL    HW117018   0.926   3.275   2.018  0.4686 -1.8238  1.1573
 4255SOL    HW217019   1.075   3.303   2.015 -0.0369  0.9671 -0.2892
 4255SOL     MW17020   0.995   3.321   2.045 -0.2004 -0.0190 -0.0937
 4256SOL     OW17021   3.620   3.943   1.840  0.1715 -0.1574  0.0672
 4256SOL    HW117022   3.703   3.895   1.847 -0.1154 -0.9015 -1.2411
 4256SOL    HW217023   3.578   3.907   1.762 -0.3607  1.7948 -0.5992
 4256SOL     MW17024   3.625   3.932   1.831  0.0666 -0.0028 -0.1856
 4257SOL     OW17025   4.734   2.922   2.738 -0.3294 -0.1299 -0.0488
 4257SOL    HW117026   4.665   2.887   2.795 -1.9027 -0.4469 -2.0592
 4257SOL    HW217027   4.800   2.852   2.736 -0.3295 -0.2002  1.1569
 4257SOL     MW17028   4.734   2.908   2.745 -0.5308 -0.1795 -0.1518
 4258SOL     OW17029   0.003   0.900   1.166  0.0459  0.0302  0.4251
 4258SOL    HW117030   0.053   0.818   1.159 -0.8294 -0.6019  1.2528
 4258SOL    HW217031   0.001   0.934   1.077 -1.4696 -2.0239 -0.4115
 4258SOL     MW17032   0.009   0.894   1.154 -0.2602 -0.3137  0.4240
 4259SOL     OW17033   1.020   0.293   3.276 -0.2748  0.1338 -0.1790
 4259SOL    HW117034   1.063   0.224   3.326 -3.1949 -0.1990  2.1163
 4259SOL    HW217035   1.019   0.369   3.334 -0.5055  0.9390 -1.1947
 4259SOL     MW17036   1.026   0.294   3.290 -0.6781  0.1943 -0.0152
 4260SOL     OW17037   2.840   5.042   4.400 -0.0309  0.0637 -0.0066
 4260SOL    HW117038   2.839   5.137   4.386 -1.7979  0.2050  0.8607
 4260SOL    HW217039   2.916   5.028   4.458  0.4067  0.8971 -0.3497
 4260SOL     MW17040   2.850   5.052   4.406 -0.2011  0.1885  0.0605
 4261SOL     OW17041   3.176   1.617   1.607 -0.0533 -0.1231  0.5812
 4261SOL    HW117042   3.180   1.648   1.517  0.2553 -0.1162  0.5953
 4261SOL    HW217043   3.219   1.687   1.658 -0.5697  0.0500  0.7795
 4261SOL     MW17044   3.182   1.630   1.602 -0.0799 -0.1001  0.6084
 4262SOL     OW17045   1.323   1.721   5.395  0.1735 -0.5403 -0.3247
 4262SOL    HW117046   1.369   1.654   5.345  0.4507 -0.6208  0.0265
 4262SOL    HW217047   1.276   1.672   5.463  0.3285 -0.3859 -0.1045
 4262SOL     MW17048   1.323   1.706   5.397  0.2288 -0.5308 -0.2515
 4263SOL     OW17049   5.133   1.529   3.610  0.0240 -0.1046 -0.7067
 4263SOL    HW117050   5.189   1.500   3.682  0.0885  0.3163 -0.5845
 4263SOL    HW217051   5.189   1.583   3.555  0.4142 -1.7321 -1.9722
 4263SOL     MW17052   5.147   1.532   3.612  0.0822 -0.2590 -0.8531
 4264SOL     OW17053   4.727   4.310   1.388  0.0326 -0.5475 -0.0565
 4264SOL    HW117054   4.701   4.328   1.297 -1.9238  0.8205  0.6887
 4264SOL    HW217055   4.652   4.263   1.425  0.5086 -0.4810  1.0250
 4264SOL     MW17056   4.714   4.306   1.381 -0.1569 -0.3638  0.1774
 4265SOL     OW17057   0.279   2.641   1.688 -0.0887 -0.1100  0.4065
 4265SOL    HW117058   0.212   2.701   1.656 -0.0349  0.0777  0.6416
 4265SOL    HW217059   0.351   2.651   1.627 -0.7995 -1.3640 -0.6841
 4265SOL     MW17060   0.280   2.650   1.676 -0.1728 -0.2465  0.2970
 4266SOL     OW17061   3.491   3.236   5.048 -0.6848  0.3729 -0.0958
 4266SOL    HW117062   3.402   3.237   5.081 -0.0212  0.6720  1.7937
 4266SOL    HW217063   3.539   3.296   5.106  0.7949  0.0256 -0.9119
 4266SOL     MW17064   3.486   3.244   5.060 -0.4105  0.3668  0.0416
 4267SOL     OW17065   3.200   3.161   5.121 -0.5191  0.1096 -0.7916
 4267SOL    HW117066   3.247   3.102   5.062  1.0604 -0.9510  1.3504
 4267SOL    HW217067   3.143   3.102   5.172 -0.0025  0.6154  0.3971
 4267SOL     MW17068   3.199   3.146   5.120 -0.2508  0.0386 -0.3652
 4268SOL     OW17069   1.084   1.748   4.604 -0.4870  0.1372 -0.2119
 4268SOL    HW117070   1.023   1.710   4.669  0.1905  0.9762  0.9566
 4268SOL    HW217071   1.171   1.734   4.642 -0.0140 -0.1319 -1.3775
 4268SOL     MW17072   1.087   1.741   4.617 -0.3397  0.2101 -0.2115
 4269SOL     OW17073   2.071   1.048   3.222 -0.4817 -0.8679 -0.3812
 4269SOL    HW117074   2.155   1.015   3.188 -0.5698 -0.6937 -0.7755
 4269SOL    HW217075   2.033   1.095   3.148 -0.9735 -1.0281 -0.2294
 4269SOL     MW17076   2.077   1.050   3.208 -0.5559 -0.8661 -0.4122
 4270SOL     OW17077   2.814   1.975   4.927 -0.0009 -0.0716  0.2659
 4270SOL    HW117078   2.895   2.026   4.922 -0.6773  1.1084  0.9767
 4270SOL    HW217079   2.749   2.036   4.963 -1.6252 -0.4535 -1.7609
 4270SOL     MW17080   2.816   1.989   4.931 -0.2955  0.0305  0.0974
 4271SOL     OW17081   4.301   5.094   4.030  0.0655  0.4575 -0.5740
 4271SOL    HW117082   4.324   5.032   4.098 -1.6192 -1.9112 -1.9878
 4271SOL    HW217083   4.376   5.093   3.970 -0.3972 -1.2050 -1.1850
 4271SOL     MW17084   4.313   5.086   4.031 -0.2094 -0.0585 -0.8332
 4272SOL     OW17085   2.193   1.364   2.399  0.3070  0.1293 -0.7503
 4272SOL    HW117086   2.108   1.358   2.442  1.0075  0.9427  0.8677
 4272SOL    HW217087   2.257   1.357   2.470  1.5219  2.4704 -1.4889
 4272SOL     MW17088   2.190   1.363   2.414  0.5522  0.5331 -0.6377
 4273SOL     OW17089   3.522   2.015   0.030  0.3433 -0.0034  0.3645
 4273SOL    HW117090   3.559   1.963   0.102  0.3784 -1.1241 -0.4370
 4273SOL    HW217091   3.520   1.955  -0.044 -0.6255  0.8368 -0.3158
 4273SOL     MW17092   3.526   2.000   0.030  0.2238 -0.0393  0.1748
 4274SOL     OW17093   5.435   0.990   0.693  0.6576  0.0797  0.4555
 4274SOL    HW117094   5.382   0.911   0.702 -0.2166  0.4280 -1.1824
 4274SOL    HW217095   5.516   0.960   0.652 -0.2218  0.1634 -1.4606
 4274SOL     MW17096   5.438   0.976   0.688  0.4331  0.1350  0.0005
 4275SOL     OW17097   4.172   3.198  -0.003 -0.1027  0.0021 -0.4002
 4275SOL    HW117098   4.184   3.291  -0.019 -2.0838  0.5724  1.1004
 4275SOL    HW217099   4.235   3.176   0.066 -1.3297  0.8489  1.0314
 4275SOL     MW17100   4.182   3.207   0.004 -0.5133  0.1835 -0.0249
 4276SOL     OW17101   4.144   0.248   4.166 -0.3355 -0.1125  0.2349
 4276SOL    HW117102   4.165   0.192   4.092 -0.2505 -0.5942  0.6164
 4276SOL    HW217103   4.064   0.211   4.203 -0.1833 -0.0957  0.5922
 4276SOL     MW17104   4.137   0.236   4.161 -0.3051 -0.1720  0.3295
 4277SOL     OW17105   4.367   3.893   4.248 -0.6323 -0.0202 -0.0229
 4277SOL    HW117106   4.423   3.872   4.174  2.1591  0.4152  1.8074
 4277SOL    HW217107   4.353   3.988   4.241 -2.0060 -0.2673 -0.9870
 4277SOL     MW17108   4.372   3.903   4.238 -0.4508  0.0039  0.0880
 4278SOL     OW17109   5.423   0.930   2.733 -0.1639 -0.0082 -0.3545
 4278SOL    HW117110   5.362   0.893   2.798  1.1565 -1.1267  0.3035
 4278SOL    HW217111   5.461   1.006   2.775 -1.7667  1.2742 -1.1328
 4278SOL     MW17112   5.420   0.935   2.747 -0.2001  0.0128 -0.3699
 4279SOL     OW17113   3.000   2.556   4.514 -0.0072  0.1230  0.1404
 4279SOL    HW117114   3.013   2.612   4.437  0.0578 -0.1200 -0.0271
 4279SOL    HW217115   3.059   2.482   4.500  1.8833  1.2585  1.6033
 4279SOL     MW17116   3.009   2.554   4.502  0.2431  0.2373  0.3062
 4280SOL     OW17117   3.090   0.956   3.969  0.2452  0.4241  0.7389
 4280SOL    HW117118   3.053   1.008   3.897  0.1406 -2.6429 -1.6402
 4280SOL    HW217119   3.025   0.963   4.039 -1.2515  1.0457 -0.6351
 4280SOL     MW17120   3.077   0.963   3.969  0.0402  0.1111  0.2585
 4281SOL     OW17121   1.433   5.271   1.900  0.0600 -0.2219  0.3654
 4281SOL    HW117122   1.420   5.181   1.930  1.4735 -1.1995 -1.7270
 4281SOL    HW217123   1.504   5.305   1.955  0.9907 -1.1579 -0.2227
 4281SOL     MW17124   1.441   5.264   1.911  0.3601 -0.4669  0.0223
 4282SOL     OW17125   3.099   1.318   1.625 -0.0331  0.2319 -0.5633
 4282SOL    HW117126   3.184   1.333   1.583  0.9875 -0.5189  1.0989
 4282SOL    HW217127   3.054   1.256   1.569  1.8593 -1.8578  0.0995
 4282SOL     MW17128   3.104   1.312   1.613  0.3398 -0.1317 -0.2657
 4283SOL     OW17129   4.234   0.203   2.897 -0.0587 -0.0437  0.4142
 4283SOL    HW117130   4.275   0.211   2.811 -0.4015  1.7840  0.3746
 4283SOL    HW217131   4.218   0.109   2.907  0.1991 -0.3300 -1.4124
 4283SOL     MW17132   4.237   0.192   2.887 -0.0696  0.1536  0.1753
 4284SOL     OW17133   3.340   3.496   4.012  0.0407 -0.4305 -0.1320
 4284SOL    HW117134   3.314   3.465   4.099  2.4871  0.5179  1.0418
 4284SOL    HW217135   3.352   3.591   4.023 -0.0047 -0.2303 -1.6081
 4284SOL     MW17136   3.339   3.505   4.024  0.3481 -0.2835 -0.1707
 4285SOL     OW17137   5.002   4.372   3.388  0.2808  0.0044 -0.2475
 4285SOL    HW117138   5.016   4.284   3.424 -3.4265 -0.7743 -0.3831
 4285SOL    HW217139   5.060   4.428   3.441 -0.2893 -1.9697  2.7442
 4285SOL     MW17140   5.011   4.368   3.400 -0.2668 -0.3480  0.1181
 4286SOL     OW17141   0.356   5.398   1.516 -0.4848 -0.2678 -0.8226
 4286SOL    HW117142   0.338   5.323   1.459 -0.2717 -1.5911  0.7625
 4286SOL    HW217143   0.452   5.398   1.526 -0.3961  0.8173 -1.5638
 4286SOL     MW17144   0.366   5.389   1.510 -0.4461 -0.2983 -0.7146
 4287SOL     OW17145   3.888   1.363   1.754  0.0748 -0.1751  0.6668
 4287SOL    HW117146   3.868   1.269   1.753 -0.4377 -0.0825 -1.0821
 4287SOL    HW217147   3.982   1.368   1.740  0.0803 -0.4266  0.6083
 4287SOL     MW17148   3.897   1.351   1.752  0.0099 -0.1955  0.4355
 4288SOL     OW17149   1.908   4.248   1.877  1.0502  0.0598 -0.3314
 4288SOL    HW117150   1.987   4.195   1.860  0.1387 -1.8018  0.8338
 4288SOL    HW217151   1.940   4.325   1.924  2.2013 -0.6469  0.0926
 4288SOL     MW17152   1.922   4.251   1.881  1.0809 -0.2690 -0.1279
 4289SOL     OW17153   4.363   1.699   2.498 -0.6162 -0.0371  0.1592
 4289SOL    HW117154   4.375   1.667   2.587  1.0491  0.0430 -0.0064
 4289SOL    HW217155   4.425   1.648   2.446 -0.6616  0.7933 -0.7360
 4289SOL     MW17156   4.372   1.688   2.503 -0.4089  0.0794  0.0234
 4290SOL     OW17157   4.402   0.877   4.516 -0.3799  0.1370  0.2314
 4290SOL    HW117158   4.344   0.902   4.588 -0.3655  0.1739  0.2302
 4290SOL    HW217159   4.358   0.803   4.474 -0.3942  0.1225  0.2712
 4290SOL     MW17160   4.389   0.870   4.520 -0.3799  0.1399  0.2363
 4291SOL     OW17161   3.344   4.816   1.161 -0.2317 -0.0196  0.2142
 4291SOL    HW117162   3.375   4.891   1.111  2.8819 -1.0083  0.4085
 4291SOL    HW217163   3.250   4.812   1.144  0.1736  1.4692 -3.1063
 4291SOL     MW17164   3.336   4.825   1.153  0.2188  0.0444 -0.1860
 4292SOL     OW17165   1.741   3.941   2.313 -0.5104  0.2729  0.2144
 4292SOL    HW117166   1.649   3.956   2.335 -1.1135 -1.1805 -1.1150
 4292SOL    HW217167   1.776   3.889   2.385 -1.2333 -0.6714 -0.1021
 4292SOL     MW17168   1.734   3.936   2.325 -0.6801 -0.0341  0.0037
 4293SOL     OW17169   0.050   4.385   1.554  0.7978 -0.4949  0.0895
 4293SOL    HW117170   0.023   4.361   1.642  1.0441 -1.4995 -0.0993
 4293SOL    HW217171  -0.019   4.444   1.523 -0.4038 -1.7911  0.1879
 4293SOL     MW17172   0.038   4.390   1.561  0.6755 -0.7895  0.0779
 4294SOL     OW17173   2.611   3.044   3.236  0.2068  0.2053 -0.5145
 4294SOL    HW117174   2.645   3.049   3.147  0.8497 -0.3390 -0.3181
 4294SOL    HW217175   2.517   3.030   3.226  0.3843 -0.6397 -1.1244
 4294SOL     MW17176   2.604   3.043   3.223  0.3119  0.0275 -0.5674
 4295SOL     OW17177   4.600   0.410   4.826  0.0430 -0.0863  0.6660
 4295SOL    HW117178   4.666   0.343   4.842  0.2641 -0.1271 -0.3117
 4295SOL    HW217179   4.539   0.403   4.899  1.7891  0.8113  2.3164
 4295SOL     MW17180   4.601   0.401   4.837  0.2948  0.0233  0.7521
 4296SOL     OW17181   0.523   0.753   4.510 -0.1766 -0.0029  0.0852
 4296SOL    HW117182   0.445   0.804   4.530 -0.4079 -0.0381 -0.7003
 4296SOL    HW217183   0.516   0.675   4.564 -0.3162  0.3247  0.5529
 4296SOL     MW17184   0.512   0.750   4.519 -0.2241  0.0345  0.0445
 4297SOL     OW17185   0.962   2.795   4.011  0.6373  0.4565 -0.3379
 4297SOL    HW117186   0.871   2.764   4.006  0.7685 -0.7860  2.7257
 4297SOL    HW217187   1.014   2.716   3.996  1.2172  0.9465 -0.9578
 4297SOL     MW17188   0.957   2.781   4.009  0.7284  0.3602 -0.0251
 4298SOL     OW17189   0.000   3.768   2.654 -0.3629 -0.1301  0.0362
 4298SOL    HW117190   0.041   3.793   2.737  1.2844 -0.4306 -0.6470
 4298SOL    HW217191   0.046   3.688   2.628 -1.9349 -0.9379 -0.4176
 4298SOL     MW17192   0.011   3.761   2.662 -0.3533 -0.2720 -0.1093
 4299SOL     OW17193   1.807   4.607   1.484  0.2203 -0.3657 -0.0381
 4299SOL    HW117194   1.735   4.660   1.451  2.2380  1.8322 -1.2226
 4299SOL    HW217195   1.843   4.564   1.406  1.0137 -0.3666  0.3190
 4299SOL     MW17196   1.803   4.608   1.470  0.5801 -0.0845 -0.1440
 4300SOL     OW17197   0.992   5.107   3.976 -0.1814 -0.3132  0.1732
 4300SOL    HW117198   1.061   5.079   3.917  0.3188 -1.4827  1.2418
 4300SOL    HW217199   0.911   5.078   3.934 -0.0911  1.3284 -1.2242
 4300SOL     MW17200   0.990   5.099   3.963 -0.1058 -0.2528  0.1311
 4301SOL     OW17201   2.002   3.095   1.071 -0.1581 -0.0079  0.2180
 4301SOL    HW117202   1.938   3.081   1.141  0.7981  1.5886  1.5022
 4301SOL    HW217203   2.081   3.050   1.102 -0.2076 -0.7070 -0.6457
 4301SOL     MW17204   2.004   3.088   1.084 -0.0420  0.1070  0.2718
 4302SOL     OW17205   2.990   1.555   2.392 -0.8929 -0.0906  0.7208
 4302SOL    HW117206   2.959   1.475   2.435  0.9975 -1.9930 -1.2245
 4302SOL    HW217207   2.970   1.542   2.300 -1.4083  2.1653  0.4789
 4302SOL     MW17208   2.983   1.543   2.386 -0.7169 -0.0454  0.4408
 4303SOL     OW17209   3.522   2.488   0.494 -0.1869 -0.4526  0.0756
 4303SOL    HW117210   3.592   2.490   0.428  0.6183  1.9077  0.8823
 4303SOL    HW217211   3.518   2.397   0.522  2.0406 -0.8066 -0.5695
 4303SOL     MW17212   3.531   2.476   0.489  0.2013 -0.1957  0.0963
 4304SOL     OW17213   3.652   2.790   3.207  0.3396 -0.2015  0.0534
 4304SOL    HW117214   3.693   2.866   3.248  2.0586 -1.2916  0.4081
 4304SOL    HW217215   3.596   2.828   3.138  0.6416  1.4061  0.6540
 4304SOL     MW17216   3.650   2.805   3.203  0.5983 -0.1353  0.1757
 4305SOL     OW17217   2.344   4.649   1.875 -0.0247 -0.2909 -0.1984
 4305SOL    HW117218   2.281   4.581   1.848  0.2458  0.7952 -4.0940
 4305SOL    HW217219   2.294   4.703   1.936 -1.3674 -1.9673  0.3080
 4305SOL     MW17220   2.329   4.647   1.880 -0.1620 -0.3665 -0.6322
 4306SOL     OW17221   4.412   1.034   0.683  0.1979 -0.2466  0.0388
 4306SOL    HW117222   4.388   1.099   0.749  1.8682 -0.1837  0.6533
 4306SOL    HW217223   4.351   0.962   0.696 -1.6053  1.1193 -0.5740
 4306SOL     MW17224   4.401   1.033   0.693  0.1809 -0.0637  0.0390
 4307SOL     OW17225   1.505   0.861   3.381  0.5128  0.3146  0.0390
 4307SOL    HW117226   1.584   0.809   3.384  0.2929 -0.0183  0.1144
 4307SOL    HW217227   1.527   0.943   3.426  0.2476 -0.5428  1.8124
 4307SOL     MW17228   1.518   0.865   3.387  0.4507  0.1622  0.2757
 4308SOL     OW17229   3.171   5.304   2.391  0.2688  0.6844  0.6622
 4308SOL    HW117230   3.244   5.303   2.453  1.6957  1.3397 -0.9172
 4308SOL    HW217231   3.151   5.397   2.379  0.6720  0.6353 -0.5478
 4308SOL     MW17232   3.178   5.316   2.398  0.5031  0.7620  0.3052
 4309SOL     OW17233   4.129   3.792   5.058 -0.0742 -0.5148  0.1733
 4309SOL    HW117234   4.067   3.809   4.986 -0.8791  1.5786  1.2752
 4309SOL    HW217235   4.192   3.731   5.021 -0.9221 -0.1463 -2.0602
 4309SOL     MW17236   4.129   3.786   5.044 -0.2858 -0.1996  0.0284
 4310SOL     OW17237   2.312   0.968   0.634  0.0856 -0.2033  0.0646
 4310SOL    HW117238   2.344   0.880   0.650 -0.3901 -0.6757 -1.4068
 4310SOL    HW217239   2.274   0.964   0.546  0.5035  1.5846 -0.2425
 4310SOL     MW17240   2.312   0.956   0.625  0.0782 -0.0349 -0.1631
 4311SOL     OW17241   1.290   0.014   1.459 -0.8111 -0.5030 -0.2251
 4311SOL    HW117242   1.372   0.046   1.496 -1.2220 -1.2848  1.4755
 4311SOL    HW217243   1.282   0.059   1.375  0.9127  0.2450 -0.0257
 4311SOL     MW17244   1.299   0.024   1.453 -0.6431 -0.5073  0.0181
 4312SOL     OW17245   4.955   1.366   1.761  0.0940 -0.3508  0.2152
 4312SOL    HW117246   4.879   1.333   1.809 -0.4797 -1.4532 -1.3535
 4312SOL    HW217247   5.025   1.304   1.782 -0.9738 -2.7881 -2.7071
 4312SOL     MW17248   4.954   1.354   1.770 -0.1161 -0.8039 -0.3597
 4313SOL     OW17249   4.249   3.615   2.343  0.2630 -0.2009 -0.0800
 4313SOL    HW117250   4.195   3.659   2.408 -1.1463 -0.5270 -0.9800
 4313SOL    HW217251   4.309   3.682   2.313 -0.9996  0.7846 -0.5137
 4313SOL     MW17252   4.249   3.629   2.348 -0.0790 -0.1165 -0.2507
 4314SOL     OW17253   2.019   1.868   3.681 -0.1140  0.0011  0.4834
 4314SOL    HW117254   2.104   1.912   3.673 -0.2444 -0.0055 -1.5280
 4314SOL    HW217255   1.975   1.913   3.753  1.5678  0.0237  1.5552
 4314SOL     MW17256   2.025   1.879   3.689  0.0846  0.0032  0.3631
 4315SOL     OW17257   0.510   5.089   2.677  0.4109 -0.1386  0.4397
 4315SOL    HW117258   0.591   5.137   2.658  0.2762  0.3211  0.9757
 4315SOL    HW217259   0.454   5.104   2.601  0.7250 -0.2286  0.1893
 4315SOL     MW17260   0.513   5.097   2.665  0.4339 -0.0913  0.4763
 4316SOL     OW17261   0.242   3.315   4.855 -0.2075  0.3356  0.0870
 4316SOL    HW117262   0.323   3.341   4.811 -0.0548 -1.1562 -0.5906
 4316SOL    HW217263   0.253   3.345   4.945  1.0495  0.2912 -0.0326
 4316SOL     MW17264   0.254   3.322   4.861 -0.0270  0.1389 -0.0151
 4317SOL     OW17265   2.873   1.808   1.763  0.2544 -0.1957 -0.1342
 4317SOL    HW117266   2.801   1.815   1.825  0.9837 -0.7758  0.8055
 4317SOL    HW217267   2.875   1.893   1.719  0.6963  0.8425  1.7537
 4317SOL     MW17268   2.864   1.820   1.765  0.4044 -0.1370  0.2278
 4318SOL     OW17269   1.022   1.364   0.257  0.2753  0.2188 -0.3507
 4318SOL    HW117270   1.102   1.342   0.210 -0.4784  0.0051 -1.5868
 4318SOL    HW217271   0.951   1.329   0.202 -0.6536  0.0365  0.9054
 4318SOL     MW17272   1.023   1.356   0.244  0.0599  0.1681 -0.3482
 4319SOL     OW17273   1.556   2.289   3.638 -0.1557  0.2070  0.1766
 4319SOL    HW117274   1.595   2.202   3.626 -0.4673  0.2796 -1.7893
 4319SOL    HW217275   1.462   2.273   3.636 -0.2302  0.4601  1.1591
 4319SOL     MW17276   1.549   2.276   3.636 -0.2051  0.2487  0.0507
 4320SOL     OW17277   2.662   2.611   0.574  0.3995  0.3103 -0.0554
 4320SOL    HW117278   2.594   2.612   0.506 -0.1592 -0.0758  0.4791
 4320SOL    HW217279   2.631   2.546   0.637  0.8781  0.6934  0.5904
 4320SOL     MW17280   2.649   2.603   0.574  0.3892  0.3099  0.0957
 4321SOL     OW17281   0.560   2.409   0.860  0.4934  0.2639 -0.5570
 4321SOL    HW117282   0.603   2.493   0.874  0.5982 -0.1354  1.9945
 4321SOL    HW217283   0.632   2.346   0.851  0.5467 -0.0987  1.6981
 4321SOL     MW17284   0.575   2.412   0.861  0.5136  0.1664  0.0583
 4322SOL     OW17285   5.325   0.153   1.428 -0.1243  0.0558  0.6948
 4322SOL    HW117286   5.241   0.181   1.464 -1.0160  0.5293 -1.5809
 4322SOL    HW217287   5.388   0.215   1.465 -0.9511  0.5018  1.4202
 4322SOL     MW17288   5.322   0.164   1.438 -0.3443  0.1735  0.4963
 4323SOL     OW17289   4.849   4.121   0.847  0.0134 -0.1898  0.2500
 4323SOL    HW117290   4.921   4.144   0.905  0.2377  0.3284 -0.2272
 4323SOL    HW217291   4.847   4.025   0.848 -0.6396 -0.1865  1.8900
 4323SOL     MW17292   4.858   4.111   0.855 -0.0415 -0.1231  0.3989
 4324SOL     OW17293   1.634   1.197   3.742  0.2202 -0.1322 -0.0930
 4324SOL    HW117294   1.589   1.263   3.795  0.8482  0.0540  0.2309
 4324SOL    HW217295   1.625   1.228   3.652  0.8415  0.6288  0.0871
 4324SOL     MW17296   1.627   1.210   3.738  0.3802 -0.0110 -0.0284
 4325SOL     OW17297   3.015   2.732   2.776  0.1970 -0.4519  0.0337
 4325SOL    HW117298   3.078   2.683   2.723 -0.2408  0.0867 -1.0344
 4325SOL    HW217299   3.031   2.824   2.753  0.2481 -0.1670  1.1479
 4325SOL     MW17300   3.025   2.738   2.766  0.1475 -0.3465  0.0396
 4326SOL     OW17301   3.660   2.180   0.426 -0.0667  0.1948  0.5591
 4326SOL    HW117302   3.715   2.173   0.504 -0.0442  0.3911  0.5609
 4326SOL    HW217303   3.721   2.207   0.357  0.0890 -0.8407  0.2726
 4326SOL     MW17304   3.675   2.183   0.427 -0.0439  0.0874  0.5227
 4327SOL     OW17305   4.185   3.019   1.019  0.1084  0.4722  0.5755
 4327SOL    HW117306   4.207   3.078   1.092 -0.7483 -0.3655  1.5492
 4327SOL    HW217307   4.109   2.970   1.051  0.3914 -0.6793 -0.4733
 4327SOL     MW17308   4.178   3.021   1.033  0.0350  0.2175  0.5659
 4328SOL     OW17309   4.263   3.654   3.274  0.2884  0.0183  0.0012
 4328SOL    HW117310   4.234   3.569   3.309  0.3736 -0.5558 -1.2692
 4328SOL    HW217311   4.251   3.715   3.347 -0.1073 -1.0149  0.8325
 4328SOL     MW17312   4.257   3.651   3.288  0.2487 -0.1875 -0.0550
 4329SOL     OW17313   4.655   3.232   1.712 -0.2149 -0.3538 -0.5715
 4329SOL    HW117314   4.600   3.238   1.634  1.2364 -0.9755 -1.6846
 4329SOL    HW217315   4.736   3.275   1.687  0.5108 -1.1179  0.3942
 4329SOL     MW17316   4.658   3.239   1.699  0.0638 -0.5312 -0.5904
 4330SOL     OW17317   3.697   4.924   5.118 -0.3152  0.7387 -0.1036
 4330SOL    HW117318   3.745   4.843   5.098 -0.6702  0.1920  1.1484
 4330SOL    HW217319   3.750   4.966   5.186 -1.2305  0.4615  0.8110
 4330SOL     MW17320   3.710   4.919   5.124 -0.4778  0.6333  0.1737
 4331SOL     OW17321   2.288   0.788   5.034 -0.1874  0.0767  0.0970
 4331SOL    HW117322   2.336   0.707   5.018  0.7704  0.7653 -0.6092
 4331SOL    HW217323   2.300   0.839   4.954  1.1034  1.8391  1.3381
 4331SOL     MW17324   2.295   0.784   5.022  0.1004  0.3904  0.1654
 4332SOL     OW17325   0.490   1.657   5.369 -0.5346  0.6493  0.4206
 4332SOL    HW117326   0.447   1.611   5.442 -2.3801  1.0566 -0.3423
 4332SOL    HW217327   0.442   1.740   5.363  0.7234  1.3533 -0.1893
 4332SOL     MW17328   0.478   1.662   5.378 -0.6098  0.7915  0.2449
 4333SOL     OW17329   4.633   3.325   2.864  0.5572 -0.0551  0.0300
 4333SOL    HW117330   4.594   3.390   2.923 -0.0085 -0.0661 -0.3238
 4333SOL    HW217331   4.558   3.285   2.820  0.6749 -2.7318  2.0325
 4333SOL     MW17332   4.619   3.328   2.866  0.4999 -0.3992  0.2411
 4334SOL     OW17333   3.369   3.117   0.984  0.0643  0.2268  0.0735
 4334SOL    HW117334   3.440   3.081   0.930  0.1748 -0.3239  0.5767
 4334SOL    HW217335   3.409   3.134   1.069  0.1814  2.2087 -0.3237
 4334SOL     MW17336   3.383   3.114   0.988  0.0934  0.4100  0.0871
 4335SOL     OW17337   4.542   2.789   2.870  0.0198  0.5733 -0.1588
 4335SOL    HW117338   4.545   2.774   2.964 -3.2114  0.0807 -0.0384
 4335SOL    HW217339   4.476   2.857   2.858  1.6899  2.0141 -2.0165
 4335SOL     MW17340   4.534   2.796   2.880 -0.1800  0.6947 -0.3812
 4336SOL     OW17341   2.950   5.049   1.238 -0.1492  0.4205  0.1063
 4336SOL    HW117342   2.962   5.106   1.162  0.3367  0.4258  0.1825
 4336SOL    HW217343   2.981   4.963   1.209  0.9177  0.6245  0.5682
 4336SOL     MW17344   2.956   5.045   1.225  0.0496  0.4473  0.1752
 4337SOL     OW17345   0.975   3.880   0.948  0.0232 -0.6297 -0.7262
 4337SOL    HW117346   0.988   3.803   1.003 -1.0504  0.7432  1.5728
 4337SOL    HW217347   1.054   3.884   0.893  1.3159 -1.8994  0.9471
 4337SOL     MW17348   0.987   3.871   0.948  0.0512 -0.6165 -0.2177
 4338SOL     OW17349   2.853   2.811   1.323 -0.1193  0.4063  0.0344
 4338SOL    HW117350   2.876   2.756   1.398 -1.5118  0.6177  0.6468
 4338SOL    HW217351   2.937   2.840   1.288  0.5716 -0.1934  1.1303
 4338SOL     MW17352   2.867   2.807   1.328 -0.2091  0.3566  0.2531
 4339SOL     OW17353   3.368   4.658   3.401  0.3793  0.7075  0.4766
 4339SOL    HW117354   3.396   4.571   3.374  0.8194  1.3851 -1.4227
 4339SOL    HW217355   3.448   4.701   3.431  0.6474  1.2243 -0.8933
 4339SOL     MW17356   3.382   4.652   3.401  0.4700  0.8604  0.0581
 4340SOL     OW17357   5.200   4.293   5.422  0.1404  0.0588  0.1169
 4340SOL    HW117358   5.143   4.367   5.402 -1.3894 -0.5271  1.9162
 4340SOL    HW217359   5.142   4.217   5.423  1.2065 -0.7925  0.6617
 4340SOL     MW17360   5.185   4.292   5.420  0.0811 -0.1252  0.4170
 4341SOL     OW17361   5.201   2.164   0.518 -0.2359 -0.1114  0.0810
 4341SOL    HW117362   5.106   2.161   0.530 -0.0814 -0.2955  1.4229
 4341SOL    HW217363   5.222   2.085   0.469 -0.6692 -0.5831  0.6495
 4341SOL     MW17364   5.192   2.154   0.514 -0.2716 -0.1953  0.3256
 4342SOL     OW17365   4.202   2.400   3.342 -0.1253  0.0264  0.5030
 4342SOL    HW117366   4.189   2.313   3.305 -1.6545  0.1965  0.5781
 4342SOL    HW217367   4.237   2.384   3.429 -0.8620 -0.5409  0.7040
 4342SOL     MW17368   4.205   2.387   3.348 -0.4154 -0.0245  0.5383
 4343SOL     OW17369   5.193   1.446   2.144  0.4681 -0.4050  0.6996
 4343SOL    HW117370   5.109   1.400   2.134  0.3308 -0.1633  0.7407
 4343SOL    HW217371   5.243   1.421   2.066  0.1521 -0.1155  0.4040
 4343SOL     MW17372   5.189   1.437   2.133  0.4101 -0.3370  0.6670
 4344SOL     OW17373   3.383   2.938   4.689  0.1320  0.7526 -0.0568
 4344SOL    HW117374   3.476   2.941   4.710  0.2732 -3.5260  0.9158
 4344SOL    HW217375   3.340   2.982   4.762  1.3117 -0.3830  1.3762
 4344SOL     MW17376   3.389   2.944   4.701  0.3011  0.0595  0.2512
 4345SOL     OW17377   1.312   2.815   5.467  0.2414  0.5462 -0.4173
 4345SOL    HW117378   1.269   2.826   5.383 -0.7657  0.7705  0.1081
 4345SOL    HW217379   1.262   2.746   5.511  1.0024  0.1500 -0.1537
 4345SOL     MW17380   1.300   2.808   5.462  0.2099  0.5242 -0.3163
 4346SOL     OW17381   2.513   1.228   2.017  0.0098  0.0415 -0.4554
 4346SOL    HW117382   2.500   1.195   1.928  1.1217 -0.7857 -0.3263
 4346SOL    HW217383   2.427   1.218   2.059 -0.5127  0.3895 -1.4099
 4346SOL     MW17384   2.500   1.223   2.011  0.0853 -0.0199 -0.5611
 4347SOL     OW17385   1.315   4.653   2.888  0.1645  0.1334  0.7814
 4347SOL    HW117386   1.253   4.726   2.892 -1.2152 -1.0753  2.1931
 4347SOL    HW217387   1.293   4.597   2.962  1.2711 -1.6884 -0.1788
 4347SOL     MW17388   1.304   4.655   2.898  0.1296 -0.2545  0.8392
 4348SOL     OW17389   4.805   2.241   5.428 -0.1877 -0.1604 -0.1150
 4348SOL    HW117390   4.737   2.285   5.479 -0.4582  1.1847 -1.5333
 4348SOL    HW217391   4.778   2.149   5.425 -2.7472  0.5465 -1.7822
 4348SOL     MW17392   4.793   2.235   5.434 -0.5500  0.1022 -0.5100
 4349SOL     OW17393   5.345   2.084   4.256 -0.3165  0.0879  0.0114
 4349SOL    HW117394   5.270   2.094   4.198 -0.3562  2.2332  0.3493
 4349SOL    HW217395   5.405   2.154   4.230  0.0159  0.6011  2.0145
 4349SOL     MW17396   5.343   2.094   4.245 -0.2790  0.4282  0.3111
 4350SOL     OW17397   0.798   2.790   2.893 -0.3654  0.0225 -0.2507
 4350SOL    HW117398   0.838   2.822   2.812 -0.8847  1.0916 -0.1060
 4350SOL    HW217399   0.778   2.870   2.942 -1.7745 -0.5255  0.1140
 4350SOL     MW17400   0.801   2.805   2.889 -0.6123  0.0892 -0.1855
 4351SOL     OW17401   1.260   2.538   1.338  0.3217  0.0662 -0.3041
 4351SOL    HW117402   1.262   2.633   1.347 -0.6699  0.1159 -0.4846
 4351SOL    HW217403   1.192   2.521   1.272  0.5345 -0.7620 -0.3262
 4351SOL     MW17404   1.252   2.548   1.331  0.2220 -0.0335 -0.3301
 4352SOL     OW17405   0.442   3.188   2.464 -0.1438 -0.7555  0.4764
 4352SOL    HW117406   0.403   3.249   2.527  0.1381 -1.4093  1.2967
 4352SOL    HW217407   0.442   3.236   2.381 -1.4227 -0.2417  0.7544
 4352SOL     MW17408   0.437   3.202   2.462 -0.2715 -0.7734  0.6170
 4353SOL     OW17409   1.019   0.435   0.864  0.2128 -0.0669 -0.1483
 4353SOL    HW117410   1.001   0.343   0.881 -2.6598  0.1655 -1.3641
 4353SOL    HW217411   1.010   0.444   0.769 -0.0357  1.5551  0.0003
 4353SOL     MW17412   1.015   0.425   0.854 -0.1867  0.1705 -0.2849
 4354SOL     OW17413   1.018   4.695   1.437 -0.0800  0.7847 -0.5016
 4354SOL    HW117414   0.994   4.608   1.469 -2.3548  0.5387 -2.6215
 4354SOL    HW217415   1.013   4.751   1.514 -0.7880 -0.5633  0.4657
 4354SOL     MW17416   1.014   4.691   1.451 -0.4619  0.5806 -0.6491
 4355SOL     OW17417   4.560   3.146   5.429 -0.6149 -0.7365 -0.2645
 4355SOL    HW117418   4.628   3.208   5.404 -1.1670  1.2894  2.7463
 4355SOL    HW217419   4.503   3.141   5.353 -0.3451  2.2580 -0.7868
 4355SOL     MW17420   4.562   3.153   5.416 -0.6510 -0.0938  0.0541
 4356SOL     OW17421   3.875   0.812   1.312  0.4393 -0.0580  0.4705
 4356SOL    HW117422   3.909   0.897   1.284 -1.7141  1.2038  1.5201
 4356SOL    HW217423   3.865   0.762   1.230  1.9749  0.5531 -0.1244
 4356SOL     MW17424   3.878   0.816   1.298  0.3602  0.1818  0.5287
 4357SOL     OW17425   3.309   0.397   5.043 -0.6728 -0.5291  0.5909
 4357SOL    HW117426   3.343   0.403   4.954 -0.5974 -0.2791  0.6355
 4357SOL    HW217427   3.217   0.422   5.035 -0.5904 -0.2054  0.6293
 4357SOL     MW17428   3.302   0.401   5.030 -0.6526 -0.4557  0.6015
 4358SOL     OW17429   3.396   4.583   1.579  0.4433 -0.2298  0.2789
 4358SOL    HW117430   3.407   4.551   1.489 -0.9941 -1.2712  0.4444
 4358SOL    HW217431   3.463   4.537   1.629  0.3650 -0.6749 -0.0194
 4358SOL     MW17432   3.406   4.573   1.574  0.2492 -0.4201  0.2619
 4359SOL     OW17433   0.218   2.312   3.686 -0.1821  0.0191  0.1608
 4359SOL    HW117434   0.265   2.253   3.745 -2.0455 -1.5092  0.1854
 4359SOL    HW217435   0.244   2.400   3.715  1.4778 -0.7318  1.0994
 4359SOL     MW17436   0.228   2.316   3.697 -0.2081 -0.2727  0.2841
 4360SOL     OW17437   2.715   2.960   0.136 -0.2724  0.2442 -0.9607
 4360SOL    HW117438   2.788   2.899   0.144 -0.1905  0.4650  0.1316
 4360SOL    HW217439   2.745   3.040   0.180 -1.4796  0.0251  0.3436
 4360SOL     MW17440   2.728   2.962   0.143 -0.4164  0.2444 -0.6539
 4361SOL     OW17441   4.801   1.201   0.676 -0.0989 -0.0060  0.5111
 4361SOL    HW117442   4.777   1.289   0.705 -0.9857 -0.1782  0.3291
 4361SOL    HW217443   4.736   1.179   0.610 -0.7377 -1.3363  1.5500
 4361SOL     MW17444   4.790   1.210   0.672 -0.2942 -0.1984  0.6208
 4362SOL     OW17445   0.405   2.882   2.082 -0.6108  0.4501 -0.0266
 4362SOL    HW117446   0.349   2.939   2.028 -0.0572  1.5089  0.4827
 4362SOL    HW217447   0.359   2.798   2.084 -1.7317  1.0317 -0.3587
 4362SOL     MW17448   0.392   2.879   2.075 -0.6834  0.6601 -0.0039
 4363SOL     OW17449   1.924   0.464   4.720  0.1000  0.5019  0.0611
 4363SOL    HW117450   1.970   0.399   4.772  0.1912  0.9705  0.5707
 4363SOL    HW217451   1.966   0.460   4.634 -0.1854 -0.4140 -0.0435
 4363SOL     MW17452   1.935   0.455   4.716  0.0751  0.4447  0.1129
 4364SOL     OW17453   1.882   5.422   2.422  0.0425 -0.5021 -0.0086
 4364SOL    HW117454   1.797   5.407   2.381 -0.5457  0.6347  0.7167
 4364SOL    HW217455   1.924   5.337   2.422 -0.9487 -1.0153 -0.7161
 4364SOL     MW17456   1.876   5.409   2.417 -0.1597 -0.4223 -0.0063
 4365SOL     OW17457   5.087   2.143   4.119 -0.0080 -0.2213  0.2107
 4365SOL    HW117458   5.003   2.102   4.141 -0.2319  1.2620  2.4374
 4365SOL    HW217459   5.090   2.141   4.023 -2.0128 -1.3947  0.1113
 4365SOL     MW17460   5.076   2.137   4.110 -0.2933 -0.1816  0.4830
 4366SOL     OW17461   1.128   5.038   2.616  0.0174  0.1871 -0.8485
 4366SOL    HW117462   1.109   4.947   2.596 -0.7630  0.2573 -0.4573
 4366SOL    HW217463   1.210   5.036   2.666 -1.0282 -0.4830  0.9028
 4366SOL     MW17464   1.136   5.026   2.620 -0.2164  0.1103 -0.5742
 4367SOL     OW17465   1.285   2.824   2.139  0.3244 -0.4976  0.3335
 4367SOL    HW117466   1.345   2.765   2.185  0.8617  0.1795  0.5151
 4367SOL    HW217467   1.330   2.845   2.058  0.8266  0.8473  0.9348
 4367SOL     MW17468   1.299   2.819   2.135  0.4575 -0.2387  0.4337
 4368SOL     OW17469   4.091   3.795   0.556 -0.0473  0.0248 -0.5316
 4368SOL    HW117470   4.144   3.848   0.496  2.8498 -0.2655  1.5536
 4368SOL    HW217471   4.153   3.732   0.593 -1.2502  1.0024  3.7017
 4368SOL     MW17472   4.105   3.794   0.553  0.1696  0.1128  0.2772
 4369SOL     OW17473   0.689   3.051   0.447 -0.7774  0.3363 -0.0383
 4369SOL    HW117474   0.717   3.063   0.357 -1.2893  0.3855 -0.1969
 4369SOL    HW217475   0.703   3.136   0.489 -0.8337  0.4048 -0.1574
 4369SOL     MW17476   0.694   3.063   0.441 -0.8502  0.3514 -0.0738
 4370SOL     OW17477   2.597   2.928   2.083 -0.3636 -0.3993  0.1241
 4370SOL    HW117478   2.554   2.926   2.169  0.8179 -0.0342  0.7422
 4370SOL    HW217479   2.690   2.925   2.103 -0.0725 -0.3136 -1.1593
 4370SOL     MW17480   2.603   2.927   2.097 -0.1751 -0.3416  0.0390
 4371SOL     OW17481   2.143   2.636   0.587 -0.1370  0.1674  0.5190
 4371SOL    HW117482   2.199   2.617   0.662 -0.6410 -0.1139  0.8277
 4371SOL    HW217483   2.166   2.570   0.522  0.5785  0.6486  0.2672
 4371SOL     MW17484   2.154   2.625   0.588 -0.1099  0.1930  0.5263
 4372SOL     OW17485   0.944   0.627   4.695 -0.2160  0.0163 -0.5534
 4372SOL    HW117486   0.878   0.696   4.694  0.5543  0.7782 -1.6390
 4372SOL    HW217487   1.024   0.671   4.724  0.3904 -0.2998 -1.6997
 4372SOL     MW17488   0.946   0.641   4.698 -0.0398  0.0734 -0.8391
 4373SOL     OW17489   0.649   4.180   5.127 -0.2830 -0.3191  0.0977
 4373SOL    HW117490   0.703   4.195   5.204  1.0179  0.6571 -0.9667
 4373SOL    HW217491   0.697   4.115   5.076  0.6299  1.5036 -1.4897
 4373SOL     MW17492   0.662   4.173   5.131  0.0004  0.0392 -0.2417
 4374SOL     OW17493   1.999   1.051   2.418 -0.2675 -0.3816  0.2583
 4374SOL    HW117494   1.924   0.994   2.401  0.3330 -1.2875  0.6050
 4374SOL    HW217495   2.065   0.994   2.458  0.3810  0.5350  0.5333
 4374SOL     MW17496   1.998   1.037   2.421 -0.1076 -0.3803  0.3379
 4375SOL     OW17497   1.565   3.361   0.557 -0.4270 -0.0710  0.2059
 4375SOL    HW117498   1.641   3.348   0.614 -1.0196  2.6369  1.7796
 4375SOL    HW217499   1.580   3.445   0.515 -1.3650 -0.7048 -1.4788
 4375SOL     MW17500   1.576   3.370   0.559 -0.6229  0.1945  0.1917
 4376SOL     OW17501   3.906   2.133   3.638  0.0920 -0.3257 -0.2460
 4376SOL    HW117502   3.860   2.102   3.561  0.3431 -0.2468 -0.4291
 4376SOL    HW217503   3.998   2.114   3.620  0.2583  0.6096 -0.4038
 4376SOL     MW17504   3.912   2.126   3.626  0.1454 -0.1959 -0.2896
 4377SOL     OW17505   5.062   3.634   0.814  0.5456  0.2788 -0.1597
 4377SOL    HW117506   5.001   3.562   0.802 -1.4711  1.9668 -0.6510
 4377SOL    HW217507   5.107   3.615   0.897 -1.3042 -0.6000  0.6796
 4377SOL     MW17508   5.060   3.623   0.823  0.0506  0.3824 -0.1152
 4378SOL     OW17509   5.419   3.635   3.856 -0.1906  0.0856  0.1143
 4378SOL    HW117510   5.489   3.685   3.897  0.8125 -0.5224 -0.7852
 4378SOL    HW217511   5.459   3.549   3.838 -1.2553 -0.3643 -0.1598
 4378SOL     MW17512   5.433   3.630   3.859 -0.1985 -0.0499 -0.0360
 4379SOL     OW17513   4.058   0.972   1.176 -0.2131  0.0009 -0.3602
 4379SOL    HW117514   4.111   0.948   1.100  0.3204 -0.3660  0.1157
 4379SOL    HW217515   4.121   0.981   1.247 -0.6914  0.4749  0.0126
 4379SOL     MW17516   4.073   0.970   1.176 -0.2060  0.0146 -0.2515
 4380SOL     OW17517   3.515   4.988   4.162 -0.2568  0.3444 -0.1131
 4380SOL    HW117518   3.503   5.049   4.089 -0.2612 -1.0013 -1.2703
 4380SOL    HW217519   3.443   4.926   4.153  0.2811 -0.3743  0.4792
 4380SOL     MW17520   3.504   4.988   4.151 -0.1885  0.0801 -0.1854
 4381SOL     OW17521   4.114   4.143   3.769  0.5423 -1.0070  0.3036
 4381SOL    HW117522   4.143   4.222   3.724  0.4746  0.1457  2.1863
 4381SOL    HW217523   4.020   4.138   3.751  0.1758  0.4049  1.6581
 4381SOL     MW17524   4.106   4.152   3.761  0.4867 -0.6787  0.7180
 4382SOL     OW17525   2.074   3.626   1.417  0.4422 -0.1866 -0.5162
 4382SOL    HW117526   2.131   3.626   1.494  0.9002  1.8145 -0.7947
 4382SOL    HW217527   2.126   3.586   1.348 -0.1813 -2.5492  0.2872
 4382SOL     MW17528   2.088   3.621   1.418  0.4210 -0.2329 -0.4490
 4383SOL     OW17529   5.086   3.036   0.715 -0.6330 -0.1467  0.3549
 4383SOL    HW117530   5.024   2.963   0.717  0.3977 -1.0398  0.1230
 4383SOL    HW217531   5.160   3.006   0.767  0.3577  0.2139 -0.8243
 4383SOL     MW17532   5.087   3.023   0.722 -0.3742 -0.2149  0.1743
 4384SOL     OW17533   4.885   4.787   2.514  0.2573 -0.1266  0.0121
 4384SOL    HW117534   4.795   4.795   2.481  0.5264  0.9664 -0.5278
 4384SOL    HW217535   4.932   4.739   2.446 -0.0819 -1.3892  0.6509
 4384SOL     MW17536   4.880   4.782   2.501  0.2483 -0.1483  0.0247
 4385SOL     OW17537   3.098   4.380   4.726  0.6401 -0.1844 -0.0401
 4385SOL    HW117538   3.043   4.433   4.668 -0.6570 -1.4769 -0.0343
 4385SOL    HW217539   3.167   4.440   4.754 -0.9845  1.6313  0.2859
 4385SOL     MW17540   3.100   4.394   4.722  0.2661 -0.1174  0.0024
 4386SOL     OW17541   1.833   3.254   3.319 -0.1438 -0.3904 -0.0605
 4386SOL    HW117542   1.751   3.208   3.305 -0.4035 -0.9306  2.6577
 4386SOL    HW217543   1.809   3.347   3.323 -0.6482 -0.5493  0.7481
 4386SOL     MW17544   1.820   3.260   3.318 -0.2416 -0.4799  0.3910
 4387SOL     OW17545   0.723   1.718   3.407 -0.2218  0.5899 -0.6371
 4387SOL    HW117546   0.674   1.772   3.345  0.0746  0.6415 -0.8278
 4387SOL    HW217547   0.802   1.769   3.425 -0.8395  1.1304  0.6898
 4387SOL     MW17548   0.727   1.732   3.401 -0.2629  0.6657 -0.4916
 4388SOL     OW17549   0.003   4.372   4.582  0.3032 -0.1426  0.2694
 4388SOL    HW117550   0.011   4.432   4.657 -1.4468  0.4363  0.0419
 4388SOL    HW217551  -0.013   4.430   4.507 -0.4598 -0.8275 -0.1113
 4388SOL     MW17552   0.002   4.387   4.582 -0.0185 -0.1562  0.1916
 4389SOL     OW17553   0.477   2.381   0.585 -0.1956 -0.1624 -0.4288
 4389SOL    HW117554   0.506   2.400   0.674  0.9489  0.2623 -0.8801
 4389SOL    HW217555   0.549   2.410   0.529 -1.1607  0.1630 -1.5386
 4389SOL     MW17556   0.490   2.387   0.590 -0.1726 -0.0664 -0.6286
 4390SOL     OW17557   0.822   3.886   1.460  0.5747 -0.2144 -0.3530
 4390SOL    HW117558   0.809   3.825   1.387 -0.5029  1.7996 -1.9473
 4390SOL    HW217559   0.743   3.941   1.460  0.8700  0.3082  1.9120
 4390SOL     MW17560   0.810   3.885   1.451  0.4746  0.1104 -0.2671
 4391SOL     OW17561   1.933   3.856   5.352  0.5194  0.0369  0.4391
 4391SOL    HW117562   1.991   3.844   5.427  1.9112  0.1658 -0.5840
 4391SOL    HW217563   1.962   3.938   5.312  0.6543 -0.6893 -0.9879
 4391SOL     MW17564   1.944   3.865   5.357  0.7148 -0.0396  0.1254
 4392SOL     OW17565   3.316   0.376   4.389 -0.0910  0.0692 -0.4396
 4392SOL    HW117566   3.375   0.301   4.375  0.4195  0.4520 -0.3677
 4392SOL    HW217567   3.301   0.377   4.483 -1.6518 -1.0944 -0.6304
 4392SOL     MW17568   3.322   0.366   4.399 -0.2254 -0.0308 -0.4548
 4393SOL     OW17569   3.440   5.268   3.588  0.1474 -0.0640  0.2717
 4393SOL    HW117570   3.476   5.220   3.514 -0.9817  0.7578 -0.8462
 4393SOL    HW217571   3.351   5.235   3.597 -0.0769  0.6050  0.5738
 4393SOL     MW17572   3.433   5.258   3.580 -0.0259  0.1268  0.1673
 4394SOL     OW17573   0.336   2.692   3.192  0.4228 -0.5642 -0.6472
 4394SOL    HW117574   0.347   2.728   3.280  1.0270  0.4698 -1.1235
 4394SOL    HW217575   0.380   2.607   3.195 -1.2797 -1.4649  0.5851
 4394SOL     MW17576   0.343   2.686   3.203  0.2822 -0.5471 -0.5504
 4395SOL     OW17577   2.423   3.222   4.266 -0.1595 -0.1388  0.5743
 4395SOL    HW117578   2.466   3.264   4.340 -1.2131  0.7003  0.7329
 4395SOL    HW217579   2.482   3.151   4.241  2.1204  1.8786 -0.2182
 4395SOL     MW17580   2.436   3.218   4.272 -0.0025  0.2269  0.4932
 4396SOL     OW17581   5.379   0.145   0.521 -0.2789 -0.0631 -0.0330
 4396SOL    HW117582   5.426   0.228   0.511 -1.3905  0.5719 -0.2721
 4396SOL    HW217583   5.360   0.139   0.614 -2.2042  1.1644 -0.2753
 4396SOL     MW17584   5.382   0.155   0.531 -0.6676  0.1753 -0.0946
 4397SOL     OW17585   1.287   2.367   2.544  0.5800 -0.2437  0.0002
 4397SOL    HW117586   1.214   2.308   2.528  0.5927 -0.5814  1.0833
 4397SOL    HW217587   1.284   2.384   2.639  0.7651  1.2336 -0.2279
 4397SOL     MW17588   1.278   2.362   2.554  0.6053 -0.0978  0.1097
 4398SOL     OW17589   4.388   3.240   3.262 -0.3565  0.2470 -0.2862
 4398SOL    HW117590   4.429   3.154   3.255  0.0405  0.5403 -1.8749
 4398SOL    HW217591   4.457   3.297   3.294 -0.4447  0.1186  0.1471
 4398SOL     MW17592   4.402   3.236   3.265 -0.3169  0.2681 -0.4341
 4399SOL     OW17593   4.604   1.916   4.049 -0.1066 -0.3398 -0.2996
 4399SOL    HW117594   4.580   1.969   4.125  0.8572  0.4213 -0.4987
 4399SOL    HW217595   4.684   1.957   4.016  0.7502 -2.0091 -0.4052
 4399SOL     MW17596   4.611   1.928   4.054  0.1264 -0.4561 -0.3386
 4400SOL     OW17597   5.195   2.788   4.498 -0.1934 -0.2725  0.0726
 4400SOL    HW117598   5.118   2.805   4.444  0.6030  1.3188 -0.6355
 4400SOL    HW217599   5.243   2.719   4.453 -1.1210 -1.2149  0.4742
 4400SOL     MW17600   5.191   2.782   4.486 -0.2102 -0.1894  0.0334
 4401SOL     OW17601   4.940   2.305   2.798 -0.2672  0.3535 -0.4307
 4401SOL    HW117602   4.999   2.233   2.816  0.0303  0.8956  0.9230
 4401SOL    HW217603   4.852   2.267   2.807 -0.1139  0.2066  0.5175
 4401SOL     MW17604   4.936   2.291   2.802 -0.2095  0.4041 -0.1360
 4402SOL     OW17605   4.108   3.401   2.070 -0.5958 -0.3717  0.0100
 4402SOL    HW117606   4.176   3.380   2.134 -0.6379 -1.8730 -0.3984
 4402SOL    HW217607   4.026   3.391   2.118 -0.5677  1.5602  0.5368
 4402SOL     MW17608   4.106   3.397   2.084 -0.5976 -0.3166  0.0251
 4403SOL     OW17609   2.978   2.305   4.164 -0.3596 -0.0694  0.2933
 4403SOL    HW117610   2.995   2.384   4.112 -1.0490 -0.6851 -0.8948
 4403SOL    HW217611   2.884   2.308   4.182  0.0354  0.7191  2.5206
 4403SOL     MW17612   2.968   2.316   4.160 -0.3973 -0.0473  0.4264
 4404SOL     OW17613   3.878   0.909   4.752  0.2047  0.0703 -0.6103
 4404SOL    HW117614   3.804   0.941   4.700  1.0761 -2.3006 -3.6051
 4404SOL    HW217615   3.908   0.985   4.801 -2.0043  1.9745 -2.0226
 4404SOL     MW17616   3.872   0.923   4.752  0.0335  0.0105 -1.1745
 4405SOL     OW17617   3.126   5.022   5.273  0.0793 -0.1298 -0.1128
 4405SOL    HW117618   3.202   5.071   5.306 -0.0789  0.3057 -0.3821
 4405SOL    HW217619   3.152   4.930   5.278  0.4494 -0.0053  0.2357
 4405SOL     MW17620   3.139   5.017   5.278  0.1064 -0.0581 -0.1026
 4406SOL     OW17621   2.385   4.713   3.716  0.1718 -0.2835 -0.2972
 4406SOL    HW117622   2.452   4.678   3.658 -0.0953  0.6260 -1.1924
 4406SOL    HW217623   2.313   4.739   3.658 -0.0154  0.8515  0.3987
 4406SOL     MW17624   2.384   4.712   3.702  0.1136 -0.0218 -0.3227
 4407SOL     OW17625   5.197   3.762   2.648 -0.1659 -0.4238  0.0353
 4407SOL    HW117626   5.289   3.779   2.627 -0.2845 -0.8966 -0.9259
 4407SOL    HW217627   5.162   3.720   2.569 -1.0876 -0.6736  0.5670
 4407SOL     MW17628   5.204   3.759   2.635 -0.2991 -0.5163 -0.0197
 4408SOL     OW17629   3.464   1.250   2.605  0.2220 -0.3730 -0.0876
 4408SOL    HW117630   3.418   1.273   2.524 -2.0833 -1.1040  0.9114
 4408SOL    HW217631   3.488   1.159   2.594  0.2241 -0.3709 -0.0996
 4408SOL     MW17632   3.461   1.242   2.593 -0.0729 -0.4663  0.0388
 4409SOL     OW17633   2.916   4.844   0.856 -0.3525  0.0483 -0.0196
 4409SOL    HW117634   2.945   4.884   0.775 -2.4458  1.0495 -0.3547
 4409SOL    HW217635   2.936   4.751   0.846 -1.0114  0.0624 -1.9224
 4409SOL     MW17636   2.922   4.837   0.845 -0.7048  0.1783 -0.3061
 4410SOL     OW17637   3.486   1.913   4.807  0.0543 -0.0045 -0.4862
 4410SOL    HW117638   3.551   1.942   4.871  1.7670 -0.4949 -1.9264
 4410SOL    HW217639   3.426   1.987   4.799  0.2374  0.3553  1.0871
 4410SOL     MW17640   3.487   1.926   4.814  0.2970 -0.0212 -0.4692
 4411SOL     OW17641   5.192   2.272   2.529  0.4365  0.2210 -0.7748
 4411SOL    HW117642   5.117   2.330   2.538 -0.3512 -0.8616 -0.0644
 4411SOL    HW217643   5.265   2.322   2.564 -0.4784  0.2943  1.1696
 4411SOL     MW17644   5.192   2.286   2.535  0.2185  0.0918 -0.4350
 4412SOL     OW17645   3.480   1.116   1.291 -0.1066 -0.4635 -0.2567
 4412SOL    HW117646   3.395   1.160   1.296  0.0220 -0.2030 -0.3811
 4412SOL    HW217647   3.493   1.100   1.198 -0.6942 -1.8193 -0.1409
 4412SOL     MW17648   3.471   1.119   1.280 -0.1654 -0.6037 -0.2578
 4413SOL     OW17649   4.114   3.587   1.593  0.0145  0.0981  0.5662
 4413SOL    HW117650   4.151   3.653   1.535 -0.7623  0.3451  0.3440
 4413SOL    HW217651   4.170   3.510   1.580  0.5223  0.5004  0.3341
 4413SOL     MW17652   4.126   3.585   1.584 -0.0200  0.1812  0.5081
 4414SOL     OW17653   4.433   3.813   4.010 -0.0346  0.1459 -0.2752
 4414SOL    HW117654   4.478   3.887   3.969 -1.8018  1.5633  0.1686
 4414SOL    HW217655   4.489   3.738   3.993  1.7348  1.5416 -0.9532
 4414SOL     MW17656   4.446   3.813   4.002 -0.0343  0.5061 -0.3052
 4415SOL     OW17657   0.747   4.385   3.027 -0.2626  0.2257  0.5316
 4415SOL    HW117658   0.700   4.466   3.048 -2.6646 -1.3809  1.8049
 4415SOL    HW217659   0.701   4.351   2.950 -0.3032 -0.6691  0.9381
 4415SOL     MW17660   0.735   4.391   3.020 -0.5753 -0.0945  0.7466
 4416SOL     OW17661   5.222   2.864   4.207  0.0846 -0.5941 -0.4209
 4416SOL    HW117662   5.285   2.895   4.273  0.9046  1.1654 -1.9273
 4416SOL    HW217663   5.271   2.800   4.155  0.4818  0.3141 -1.2035
 4416SOL     MW17664   5.237   2.860   4.209  0.2404 -0.2526 -0.7139
 4417SOL     OW17665   4.391   4.627   3.066 -0.1099 -0.3355 -0.0146
 4417SOL    HW117666   4.362   4.595   3.152  0.3021  2.2168  1.1855
 4417SOL    HW217667   4.323   4.598   3.005 -0.0603 -2.8383  0.9704
 4417SOL     MW17668   4.379   4.619   3.070 -0.0508 -0.3292  0.2651
 4418SOL     OW17669   4.197   3.360   5.047  0.4282  0.1669 -0.2776
 4418SOL    HW117670   4.142   3.319   4.980  0.0276  1.1182 -0.5487
 4418SOL    HW217671   4.215   3.289   5.109 -0.7803 -0.2747 -0.3957
 4418SOL     MW17672   4.192   3.346   5.047  0.2222  0.2322 -0.3274
 4419SOL     OW17673   5.260   4.830   3.099 -0.1856 -0.1488  0.2909
 4419SOL    HW117674   5.254   4.917   3.136 -0.1703  0.3025 -0.7172
 4419SOL    HW217675   5.348   4.825   3.063 -0.3534 -0.3892 -0.1009
 4419SOL     MW17676   5.270   4.840   3.099 -0.2051 -0.1218  0.1117
 4420SOL     OW17677   5.385   1.720   4.363  0.1181  0.1120  0.1626
 4420SOL    HW117678   5.351   1.676   4.285  2.5619  1.2339 -1.6761
 4420SOL    HW217679   5.476   1.690   4.369  1.0483  2.7531  0.4268
 4420SOL     MW17680   5.393   1.710   4.353  0.5500  0.5937 -0.0389
 4421SOL     OW17681   0.456   3.767   2.687  0.0904 -0.1462 -0.2208
 4421SOL    HW117682   0.387   3.746   2.624  0.6356 -0.8441 -0.6058
 4421SOL    HW217683   0.535   3.777   2.634  0.2161  1.0695  0.1693
 4421SOL     MW17684   0.457   3.765   2.672  0.1763 -0.0799 -0.2201
 4422SOL     OW17685   3.732   1.674   3.124  0.2421 -0.6516  0.1687
 4422SOL    HW117686   3.803   1.678   3.189 -0.4054 -1.4159  0.9428
 4422SOL    HW217687   3.682   1.596   3.148 -1.5766  0.5266  0.3728
 4422SOL     MW17688   3.735   1.665   3.136 -0.0736 -0.5986  0.2939
 4423SOL     OW17689   2.152   2.330   2.230  0.4129 -0.0164 -0.3813
 4423SOL    HW117690   2.144   2.314   2.324 -0.9924 -2.9479 -0.8700
 4423SOL    HW217691   2.072   2.375   2.205  0.4718  0.1464 -0.2731
 4423SOL     MW17692   2.141   2.334   2.239  0.2406 -0.3708 -0.4300
 4424SOL     OW17693   4.493   0.688   2.043  0.4812  0.4755 -0.3335
 4424SOL    HW117694   4.582   0.714   2.018  1.9497 -1.3069  2.4887
 4424SOL    HW217695   4.503   0.600   2.078 -2.4948  0.0988 -0.1908
 4424SOL     MW17696   4.506   0.680   2.044  0.2882  0.1991  0.0460
 4425SOL     OW17697   2.954   1.828   0.005  0.6321 -0.0279  0.0229
 4425SOL    HW117698   2.964   1.917   0.037  1.0181  0.2719 -0.9189
 4425SOL    HW217699   3.043   1.792   0.005  0.7441  0.2067 -1.3517
 4425SOL     MW17700   2.967   1.835   0.009  0.6958  0.0405 -0.2736
 4426SOL     OW17701   1.189   3.028   1.757 -0.2708 -0.4555 -0.1469
 4426SOL    HW117702   1.277   3.035   1.719  0.0109 -0.2973  0.5248
 4426SOL    HW217703   1.130   3.053   1.685  0.3043  0.7537 -0.2248
 4426SOL     MW17704   1.193   3.032   1.743 -0.1611 -0.2804 -0.0709
 4427SOL     OW17705   1.980   3.076   2.586 -0.0167 -0.1566  0.7010
 4427SOL    HW117706   1.969   3.028   2.668 -0.4062 -1.9271 -0.3529
 4427SOL    HW217707   1.892   3.104   2.561 -0.5168 -2.8942 -0.9763
 4427SOL     MW17708   1.968   3.074   2.593 -0.1305 -0.7337  0.3514
 4428SOL     OW17709   4.827   2.009   3.356 -0.1571  0.2139 -0.0997
 4428SOL    HW117710   4.734   2.003   3.333 -0.0308 -1.0069 -0.3818
 4428SOL    HW217711   4.857   1.918   3.359  0.7388  0.5207  1.2306
 4428SOL     MW17712   4.819   1.996   3.353 -0.0263  0.0969  0.0345
 4429SOL     OW17713   4.891   3.195   0.856  0.0536 -0.4560  0.2073
 4429SOL    HW117714   4.878   3.288   0.839 -1.5304 -0.5596  0.6871
 4429SOL    HW217715   4.965   3.170   0.801  0.0639  0.9360 -0.4397
 4429SOL     MW17716   4.899   3.204   0.847 -0.1479 -0.2911  0.1859
 4430SOL     OW17717   5.325   5.345   4.798 -0.2267  0.1177 -0.0951
 4430SOL    HW117718   5.384   5.414   4.828 -0.4792  0.0595  0.5603
 4430SOL    HW217719   5.307   5.293   4.877  2.1848 -2.4235 -1.0631
 4430SOL     MW17720   5.330   5.347   4.812  0.0497 -0.2150 -0.1351
 4431SOL     OW17721   1.018   0.779   2.885 -0.0205 -0.2647 -0.3436
 4431SOL    HW117722   1.044   0.837   2.957 -1.2784  1.2546 -1.0501
 4431SOL    HW217723   0.950   0.828   2.838  1.2283 -0.8600 -2.9785
 4431SOL     MW17724   1.013   0.793   2.888 -0.0217 -0.1464 -0.7713
 4432SOL     OW17725   4.421   2.196   3.703  0.2803 -0.3896 -0.0327
 4432SOL    HW117726   4.504   2.226   3.665  1.2700 -0.9081  1.5919
 4432SOL    HW217727   4.442   2.179   3.795 -1.5123 -1.0818  0.2883
 4432SOL     MW17728   4.435   2.198   3.710  0.1775 -0.5446  0.2163
 4433SOL     OW17729   3.201   1.197   0.480 -0.1924  0.7124 -0.3858
 4433SOL    HW117730   3.276   1.240   0.521  0.2576 -0.4342  0.0249
 4433SOL    HW217731   3.161   1.145   0.550 -0.5571  0.2361 -0.9332
 4433SOL     MW17732   3.205   1.196   0.494 -0.1815  0.5046 -0.4033
 4434SOL     OW17733   2.590   4.646   4.942 -0.1468  0.0410  0.1512
 4434SOL    HW117734   2.575   4.645   4.848  2.3175 -0.1610 -0.3249
 4434SOL    HW217735   2.591   4.554   4.968  1.5876 -0.0668 -0.1496
 4434SOL     MW17736   2.588   4.634   4.933  0.3907  0.0014  0.0518
 4435SOL     OW17737   5.235   1.164   3.325  0.5269  0.0275 -0.6132
 4435SOL    HW117738   5.146   1.199   3.330  0.4446 -0.3532  1.7101
 4435SOL    HW217739   5.223   1.069   3.332  1.1551  0.0552  1.2580
 4435SOL     MW17740   5.222   1.156   3.327  0.5968 -0.0177 -0.0763
 4436SOL     OW17741   5.241   0.334   4.887  0.2046 -0.0486 -0.1664
 4436SOL    HW117742   5.206   0.293   4.808 -0.8771  0.1212  0.2089
 4436SOL    HW217743   5.313   0.277   4.914 -0.7640 -1.2826 -0.0969
 4436SOL     MW17744   5.246   0.321   4.881 -0.0579 -0.1848 -0.1094
 4437SOL     OW17745   4.490   1.378   2.443  0.9816 -0.1059  1.0297
 4437SOL    HW117746   4.571   1.358   2.491  0.8155  1.3029  1.9423
 4437SOL    HW217747   4.513   1.454   2.389  0.5358 -0.3140  0.5450
 4437SOL     MW17748   4.504   1.385   2.442  0.9033  0.0478  1.0845
 4438SOL     OW17749   5.274   1.428   0.930  0.2784 -0.1184 -0.2803
 4438SOL    HW117750   5.214   1.357   0.953 -0.0048 -0.4043 -1.8223
 4438SOL    HW217751   5.223   1.484   0.871  0.8942  0.7371 -0.0208
 4438SOL     MW17752   5.260   1.426   0.926  0.3210 -0.0455 -0.4445
 4439SOL     OW17753   2.504   3.837   2.034  0.1518 -0.0892  0.0994
 4439SOL    HW117754   2.576   3.840   1.970  0.4923 -0.8638  0.4429
 4439SOL    HW217755   2.547   3.832   2.119 -0.2480  2.7827  0.5832
 4439SOL     MW17756   2.519   3.837   2.037  0.1442  0.1793  0.2053
 4440SOL     OW17757   4.661   4.798   1.962 -0.0198  0.4773  0.1219
 4440SOL    HW117758   4.624   4.755   1.884  1.4541  1.3841 -1.1272
 4440SOL    HW217759   4.599   4.868   1.981 -0.6222 -0.0201  0.0414
 4440SOL     MW17760   4.648   4.801   1.954  0.0917  0.5297 -0.0483
 4441SOL     OW17761   1.423   0.629   1.757 -0.4849  0.3389 -0.5643
 4441SOL    HW117762   1.362   0.565   1.793  0.1859 -0.6281 -1.0926
 4441SOL    HW217763   1.453   0.679   1.832 -2.5715  1.4351 -0.3937
 4441SOL     MW17764   1.419   0.627   1.771 -0.6662  0.3555 -0.6101
 4442SOL     OW17765   2.047   4.198   2.668 -0.7140 -0.3866  0.0027
 4442SOL    HW117766   1.957   4.184   2.641 -0.1800 -0.1715 -2.0634
 4442SOL    HW217767   2.056   4.149   2.750 -2.6468 -0.5150  0.1656
 4442SOL     MW17768   2.037   4.190   2.675 -0.8931 -0.3755 -0.2409
 4443SOL     OW17769   2.707   2.897   3.441 -0.0208 -0.0622  0.1084
 4443SOL    HW117770   2.666   2.955   3.376 -1.0050 -0.8949 -0.0287
 4443SOL    HW217771   2.783   2.947   3.472 -1.7034  2.0243  1.1823
 4443SOL     MW17772   2.711   2.911   3.436 -0.3622  0.0983  0.2283
 4444SOL     OW17773   1.097   1.995   0.414 -0.3439  0.2401  0.4879
 4444SOL    HW117774   1.159   1.933   0.454 -0.5178 -0.5945 -0.4908
 4444SOL    HW217775   1.016   1.983   0.464 -0.4563 -0.5338  0.1345
 4444SOL     MW17776   1.095   1.985   0.426 -0.3805  0.0342  0.3174
 4445SOL     OW17777   3.470   2.129   5.220  0.3923  0.1135  0.3933
 4445SOL    HW117778   3.414   2.183   5.165  0.5967  0.4679  0.5354
 4445SOL    HW217779   3.559   2.151   5.192  0.4586 -0.7900 -0.1598
 4445SOL     MW17780   3.474   2.138   5.209  0.4269  0.0432  0.3407
 4446SOL     OW17781   3.590   1.546   2.517 -0.5517  0.1353 -0.2077
 4446SOL    HW117782   3.537   1.521   2.441 -1.6157 -2.8780  1.3742
 4446SOL    HW217783   3.678   1.514   2.497 -0.2101  1.5557 -1.1356
 4446SOL     MW17784   3.594   1.539   2.505 -0.6442 -0.0686 -0.1240
 4447SOL     OW17785   5.426   5.326   1.375 -0.9899  0.5405 -0.1752
 4447SOL    HW117786   5.359   5.304   1.440 -0.2185  0.7892  0.7423
 4447SOL    HW217787   5.432   5.421   1.378  1.4993  0.4643  2.0633
 4447SOL     MW17788   5.418   5.335   1.384 -0.5725  0.5625  0.2288
 4448SOL     OW17789   3.139   3.676   2.765  0.3176 -0.1889  0.2380
 4448SOL    HW117790   3.109   3.702   2.851  1.2288 -0.6887  0.7240
 4448SOL    HW217791   3.126   3.754   2.710 -0.2433  0.1342  0.8267
 4448SOL     MW17792   3.134   3.689   2.769  0.3624 -0.2115  0.3756
 4449SOL     OW17793   1.841   2.195   3.027 -0.1169  0.6394  0.2527
 4449SOL    HW117794   1.774   2.148   2.977  0.2028 -1.0894  1.3362
 4449SOL    HW217795   1.792   2.253   3.085 -0.4872  2.9325 -2.1640
 4449SOL     MW17796   1.827   2.196   3.028 -0.1234  0.7116  0.0820
 4450SOL     OW17797   3.581   3.408   5.202  0.0533  0.4460 -0.4013
 4450SOL    HW117798   3.657   3.372   5.248 -0.1188  0.2321 -0.2847
 4450SOL    HW217799   3.523   3.439   5.271 -0.2054  0.1237 -0.4723
 4450SOL     MW17800   3.584   3.407   5.217 -0.0018  0.3774 -0.3954
 4451SOL     OW17801   0.067   1.285   5.350  0.3383  0.0138  0.2729
 4451SOL    HW117802   0.162   1.273   5.342  0.2126  0.1895 -1.8496
 4451SOL    HW217803   0.056   1.377   5.375  0.7307 -0.3838  2.1115
 4451SOL     MW17804   0.078   1.295   5.352  0.3724 -0.0146  0.2366
 4452SOL     OW17805   2.258   2.390   1.785 -0.4651 -0.2302 -0.3691
 4452SOL    HW117806   2.294   2.426   1.867  1.3488 -0.5639 -0.9769
 4452SOL    HW217807   2.302   2.440   1.716  1.0796 -2.5768 -1.2048
 4452SOL     MW17808   2.268   2.401   1.787 -0.0352 -0.5733 -0.5539
 4453SOL     OW17809   4.849   2.019   4.194 -0.4585 -0.5008  0.1263
 4453SOL    HW117810   4.862   2.055   4.282  1.9191  1.1007 -0.7915
 4453SOL    HW217811   4.868   1.926   4.202 -0.9932 -0.5183  1.4156
 4453SOL     MW17812   4.853   2.012   4.206 -0.2226 -0.2980  0.1738
 4454SOL     OW17813   0.653   2.557   4.734  0.1972  0.1623 -0.1590
 4454SOL    HW117814   0.704   2.477   4.720 -0.2654 -0.4716  1.5672
 4454SOL    HW217815   0.594   2.561   4.659  2.4977  0.7577 -2.0635
 4454SOL     MW17816   0.652   2.547   4.723  0.4325  0.1573 -0.1818
 4455SOL     OW17817   2.764   0.222   4.745  0.4232  0.9325  0.6701
 4455SOL    HW117818   2.690   0.220   4.807 -0.0438  0.8732  0.1176
 4455SOL    HW217819   2.746   0.151   4.684  2.1905 -0.6856  1.9210
 4455SOL     MW17820   2.752   0.213   4.745  0.5896  0.7178  0.7595
 4456SOL     OW17821   3.984   3.490   4.714  0.1992 -0.0031 -0.2127
 4456SOL    HW117822   4.028   3.557   4.661  1.3900  0.1630  0.9465
 4456SOL    HW217823   3.940   3.540   4.783 -1.8401 -0.1705 -1.3314
 4456SOL     MW17824   3.984   3.505   4.716  0.0905 -0.0032 -0.2075
 4457SOL     OW17825   3.551   5.067   0.243 -1.0803 -0.0358  0.3064
 4457SOL    HW117826   3.635   5.045   0.283 -0.4523 -2.1561 -1.9120
 4457SOL    HW217827   3.560   5.159   0.219  1.0943 -0.4502 -0.7844
 4457SOL     MW17828   3.563   5.076   0.245 -0.7216 -0.3603 -0.1172
 4458SOL     OW17829   5.178   2.805   2.755  0.9451 -0.7407 -0.1787
 4458SOL    HW117830   5.165   2.853   2.837  0.7710 -1.9591  0.5241
 4458SOL    HW217831   5.218   2.869   2.697  0.2024  0.4287  0.5468
 4458SOL     MW17832   5.182   2.820   2.758  0.8277 -0.7470  0.0041
 4459SOL     OW17833   2.527   2.706   3.052  0.2759  0.3349  0.2708
 4459SOL    HW117834   2.517   2.665   3.138  0.4941  1.3187  0.7830
 4459SOL    HW217835   2.611   2.750   3.056 -0.0059  0.9311 -0.2139
 4459SOL     MW17836   2.536   2.706   3.064  0.2678  0.5372  0.2743
 4460SOL     OW17837   5.454   2.180   1.828  0.1503 -0.6399  0.4619
 4460SOL    HW117838   5.391   2.236   1.875  0.3784  0.3504 -0.3889
 4460SOL    HW217839   5.536   2.229   1.830 -0.0828 -0.0755 -1.8681
 4460SOL     MW17840   5.456   2.193   1.834  0.1497 -0.4409  0.0547
 4461SOL     OW17841   2.459   3.296   1.159  0.0288 -0.6233 -0.0452
 4461SOL    HW117842   2.386   3.262   1.211 -0.0543 -0.7665 -0.2542
 4461SOL    HW217843   2.536   3.253   1.196  0.4332  1.8017  2.2255
 4461SOL     MW17844   2.460   3.286   1.170  0.0700 -0.3312  0.2187
 4462SOL     OW17845   2.584   3.993   0.637 -0.2242  0.5806  0.1939
 4462SOL    HW117846   2.564   3.975   0.545  0.6532 -0.6249  0.2117
 4462SOL    HW217847   2.622   3.911   0.670  0.6082  1.3719  1.2917
 4462SOL     MW17848   2.587   3.980   0.629 -0.0054  0.5275  0.3367
 4463SOL     OW17849   0.279   2.037   3.457 -0.3124  0.3456 -0.4060
 4463SOL    HW117850   0.323   2.045   3.372  0.5976  2.6205  0.2122
 4463SOL    HW217851   0.341   2.074   3.520 -1.8388  0.6695  0.9572
 4463SOL     MW17852   0.293   2.043   3.454 -0.3913  0.6783 -0.1524
 4464SOL     OW17853   4.911   0.561   5.456  0.0075 -0.0330 -0.0799
 4464SOL    HW117854   4.898   0.510   5.536 -1.0594  0.6420  0.2047
 4464SOL    HW217855   4.962   0.504   5.399  1.2409 -0.3353  1.2651
 4464SOL     MW17856   4.916   0.547   5.459  0.0288  0.0147  0.1287
 4465SOL     OW17857   3.325   4.230   1.547 -0.1014  0.5108  0.6897
 4465SOL    HW117858   3.415   4.252   1.523 -0.2863  0.1004 -0.4572
 4465SOL    HW217859   3.276   4.310   1.529 -0.0629  0.5559  0.7818
 4465SOL     MW17860   3.330   4.243   1.542 -0.1202  0.4641  0.5547
 4466SOL     OW17861   3.062   0.842   1.907 -0.0848 -0.4179  0.1146
 4466SOL    HW117862   3.130   0.843   1.975  0.3757  2.5315 -0.2241
 4466SOL    HW217863   2.992   0.896   1.944  0.0196  0.9271 -1.5085
 4466SOL     MW17864   3.062   0.849   1.921 -0.0125  0.1318 -0.1365
 4467SOL     OW17865   0.372   1.550   0.623 -0.3628  0.2859  0.4857
 4467SOL    HW117866   0.375   1.557   0.718 -0.7147 -0.3241  0.5449
 4467SOL    HW217867   0.312   1.478   0.606 -1.3558  1.2434 -0.2348
 4467SOL     MW17868   0.364   1.542   0.633 -0.5349  0.3304  0.4011
 4468SOL     OW17869   1.253   0.794   0.716  0.1833  0.2398  0.3786
 4468SOL    HW117870   1.258   0.719   0.776 -0.1856  0.3493  0.5513
 4468SOL    HW217871   1.193   0.855   0.760 -1.8745 -0.5974 -1.0989
 4468SOL     MW17872   1.246   0.792   0.729 -0.1273  0.1467  0.2116
 4469SOL     OW17873   5.450   4.400   1.892  0.3966 -0.0347 -0.4765
 4469SOL    HW117874   5.409   4.479   1.856 -2.6055 -0.9514  0.6384
 4469SOL    HW217875   5.507   4.432   1.962  0.1913  1.1921 -0.8434
 4469SOL     MW17876   5.452   4.414   1.896 -0.0140  0.0050 -0.3808
 4470SOL     OW17877   5.208   2.391   1.627 -0.0552 -0.2383  0.9138
 4470SOL    HW117878   5.273   2.429   1.686 -0.0715 -0.8007  1.3108
 4470SOL    HW217879   5.249   2.310   1.596  0.2570  0.4243 -0.4393
 4470SOL     MW17880   5.222   2.385   1.631 -0.0173 -0.2255  0.7914
 4471SOL     OW17881   2.053   1.814   4.786  0.4315 -0.0210 -0.1032
 4471SOL    HW117882   2.087   1.904   4.783  1.8498 -0.5474 -0.3306
 4471SOL    HW217883   2.021   1.804   4.876 -1.8817  1.4262 -0.6633
 4471SOL     MW17884   2.053   1.824   4.797  0.3170  0.0968 -0.2040
 4472SOL     OW17885   3.142   5.205   3.583  0.0251 -0.0594  0.0797
 4472SOL    HW117886   3.159   5.122   3.628 -2.6919 -1.3274 -1.0743
 4472SOL    HW217887   3.138   5.182   3.490  0.7506  1.6910 -0.4321
 4472SOL     MW17888   3.144   5.192   3.577 -0.2298  0.0023 -0.1336
 4473SOL     OW17889   0.258   0.687   3.528  0.7123 -0.5444 -0.1247
 4473SOL    HW117890   0.206   0.678   3.607 -0.9086  3.1228 -0.5839
 4473SOL    HW217891   0.337   0.734   3.556  0.9408 -0.7230 -0.4485
 4473SOL     MW17892   0.262   0.692   3.542  0.5340 -0.0978 -0.2249
 4474SOL     OW17893   1.209   2.466   1.617 -0.1824  0.7265 -0.0805
 4474SOL    HW117894   1.133   2.410   1.600 -1.5160  1.9889  1.3674
 4474SOL    HW217895   1.246   2.483   1.531 -0.9550 -0.6931 -0.7360
 4474SOL     MW17896   1.204   2.461   1.604 -0.4520  0.7064  0.0210
 4475SOL     OW17897   1.334   5.364   3.040 -0.2427  0.0177  0.2347
 4475SOL    HW117898   1.297   5.376   2.953  0.5054  1.2661  0.0662
 4475SOL    HW217899   1.402   5.432   3.047 -0.2312 -0.1149  1.7485
 4475SOL     MW17900   1.338   5.374   3.030 -0.1455  0.1606  0.4069
 4476SOL     OW17901   3.852   0.226   3.495  0.0164 -0.1119 -0.3030
 4476SOL    HW117902   3.818   0.161   3.434 -2.1805  0.9162 -0.2794
 4476SOL    HW217903   3.841   0.309   3.449  0.2168  0.4905  0.7132
 4476SOL     MW17904   3.847   0.228   3.481 -0.2392  0.0969 -0.1699
 4477SOL     OW17905   5.289   2.122   1.587 -0.5456  0.6055  0.3368
 4477SOL    HW117906   5.348   2.133   1.662  0.3598 -1.5692  0.0289
 4477SOL    HW217907   5.348   2.107   1.513 -1.4615  0.9686 -0.4835
 4477SOL     MW17908   5.304   2.121   1.587 -0.5470  0.3736  0.1924
 4478SOL     OW17909   1.657   4.882   4.099  0.8306 -0.1550  0.2464
 4478SOL    HW117910   1.634   4.797   4.138  0.3820 -0.9740 -1.6880
 4478SOL    HW217911   1.580   4.936   4.114  0.6226 -0.4931  0.4147
 4478SOL     MW17912   1.644   4.878   4.106  0.7465 -0.3031  0.0203
 4479SOL     OW17913   1.564   5.368   1.692  0.3058 -0.1389  0.1378
 4479SOL    HW117914   1.627   5.298   1.676 -0.3884 -0.3382 -2.0351
 4479SOL    HW217915   1.507   5.333   1.761  1.5418 -0.6057  0.9589
 4479SOL     MW17916   1.565   5.355   1.699  0.3751 -0.2242 -0.0353
 4480SOL     OW17917   3.498   1.141   1.020  0.6826  0.4949 -0.0451
 4480SOL    HW117918   3.591   1.128   1.006  0.1880 -2.3208 -1.2022
 4480SOL    HW217919   3.455   1.077   0.964 -1.9595  1.4593  0.7146
 4480SOL     MW17920   3.504   1.131   1.011  0.2811  0.2579 -0.0960
 4481SOL     OW17921   2.668   0.363   0.690 -0.0595 -0.2448  0.0897
 4481SOL    HW117922   2.666   0.456   0.668  2.1811  0.4183  2.1853
 4481SOL    HW217923   2.625   0.358   0.776  1.7914 -0.7072  1.0393
 4481SOL     MW17924   2.662   0.374   0.699  0.4642 -0.2191  0.4795
 4482SOL     OW17925   3.786   5.091   1.129 -0.2887 -0.0798 -0.3791
 4482SOL    HW117926   3.767   5.063   1.219  0.2894 -1.2168 -0.5959
 4482SOL    HW217927   3.880   5.072   1.118  0.1266  1.8847 -0.5783
 4482SOL     MW17928   3.796   5.085   1.139 -0.1616  0.0261 -0.4324
 4483SOL     OW17929   0.265   1.434   2.145 -0.1574  0.2919  0.0119
 4483SOL    HW117930   0.214   1.466   2.219 -1.1074 -0.8706 -0.1242
 4483SOL    HW217931   0.206   1.443   2.070 -0.3798 -1.5479 -0.0671
 4483SOL     MW17932   0.251   1.439   2.145 -0.3075 -0.0924 -0.0156
 4484SOL     OW17933   1.771   4.584   2.144 -0.2996 -0.5662  0.0764
 4484SOL    HW117934   1.747   4.491   2.143  0.7970 -0.8534 -0.1674
 4484SOL    HW217935   1.856   4.586   2.188 -1.1362  0.5403  1.7351
 4484SOL     MW17936   1.779   4.572   2.150 -0.2663 -0.4613  0.2575
 4485SOL     OW17937   2.578   2.004   2.062 -0.0194 -0.0713 -0.3182
 4485SOL    HW117938   2.584   2.053   2.144 -0.8334  0.2077 -0.4146
 4485SOL    HW217939   2.580   2.071   1.993  0.1328 -0.2634 -0.5028
 4485SOL     MW17940   2.579   2.019   2.063 -0.1041 -0.0602 -0.3542
 4486SOL     OW17941   4.571   2.652   4.158  0.2027  0.2988  0.6697
 4486SOL    HW117942   4.640   2.718   4.165 -0.6161  1.4605 -1.3892
 4486SOL    HW217943   4.551   2.648   4.064 -2.2746 -0.2512  1.1550
 4486SOL     MW17944   4.577   2.660   4.147 -0.2192  0.3771  0.4683
 4487SOL     OW17945   0.260   2.099   2.393 -0.5021 -0.1074  0.2623
 4487SOL    HW117946   0.236   2.019   2.348  1.4537  0.1054 -1.3281
 4487SOL    HW217947   0.177   2.140   2.417 -1.6138 -0.9702 -1.8747
 4487SOL     MW17948   0.247   2.094   2.391 -0.3941 -0.1906 -0.2148
 4488SOL     OW17949   2.334   3.464   0.340 -0.6778  0.5392 -0.4246
 4488SOL    HW117950   2.379   3.385   0.312 -0.4295  0.8644 -0.9446
 4488SOL    HW217951   2.339   3.461   0.436 -1.1384 -0.3397 -0.4205
 4488SOL     MW17952   2.341   3.454   0.349 -0.7050  0.4683 -0.4907
 4489SOL     OW17953   2.209   1.962   1.174 -0.0351 -0.2523 -0.3198
 4489SOL    HW117954   2.132   1.914   1.205  0.1670 -1.0599 -1.0704
 4489SOL    HW217955   2.247   1.908   1.106  0.7264  0.5419 -0.5529
 4489SOL     MW17956   2.204   1.949   1.169  0.0883 -0.2540 -0.4457
 4490SOL     OW17957   3.443   3.829   2.621  0.0611  0.1496  0.0018
 4490SOL    HW117958   3.410   3.852   2.534  0.3136  1.2820  0.1814
 4490SOL    HW217959   3.387   3.877   2.682  1.3255  1.2461  0.3471
 4490SOL     MW17960   3.432   3.838   2.618  0.2553  0.4349  0.0690
 4491SOL     OW17961   1.585   0.337   2.724 -0.0657 -0.0983  0.2378
 4491SOL    HW117962   1.508   0.390   2.746  0.5080  0.7888  0.1579
 4491SOL    HW217963   1.585   0.335   2.628 -0.7311 -1.2279  0.2453
 4491SOL     MW17964   1.575   0.344   2.714 -0.0774 -0.1293  0.2286
 4492SOL     OW17965   3.132   1.107   2.375  0.4110  0.1436 -0.3810
 4492SOL    HW117966   3.071   1.133   2.306 -0.1036 -0.0319 -0.0007
 4492SOL    HW217967   3.216   1.100   2.331  0.0549 -0.1408 -1.0323
 4492SOL     MW17968   3.135   1.109   2.361  0.2995  0.0847 -0.4157
 4493SOL     OW17969   1.935   1.714   2.576 -0.1002  0.0970  0.4170
 4493SOL    HW117970   1.925   1.710   2.481  1.5453 -0.4417  0.2370
 4493SOL    HW217971   1.925   1.623   2.604  0.1397  0.1479  0.6696
 4493SOL     MW17972   1.933   1.702   2.567  0.1412  0.0346  0.4263
 4494SOL     OW17973   1.862   4.108   1.469 -0.0162  0.3018 -1.2994
 4494SOL    HW117974   1.915   4.036   1.436 -1.4142  0.2677 -3.6903
 4494SOL    HW217975   1.909   4.187   1.444 -0.0093  0.2521 -1.4391
 4494SOL     MW17976   1.875   4.109   1.462 -0.1943  0.2911 -1.6233
 4495SOL     OW17977   5.010   1.622   4.759 -0.3096  0.1618  0.3602
 4495SOL    HW117978   5.073   1.552   4.739 -0.9138 -0.5296  0.8194
 4495SOL    HW217979   5.000   1.618   4.854 -0.4992  0.7549  0.3666
 4495SOL     MW17980   5.017   1.612   4.768 -0.4112  0.1492  0.4198
 4496SOL     OW17981   1.887   4.108   0.126 -0.0950 -0.5863 -0.7862
 4496SOL    HW117982   1.814   4.168   0.110  1.0941  1.5040  1.0568
 4496SOL    HW217983   1.851   4.039   0.182 -0.9810 -0.3833 -1.0998
 4496SOL     MW17984   1.873   4.107   0.131 -0.0562 -0.2927 -0.5904
 4497SOL     OW17985   0.595   2.071   4.097 -0.0831  0.1265  0.0624
 4497SOL    HW117986   0.612   2.005   4.029  0.8630  0.6839 -0.2713
 4497SOL    HW217987   0.675   2.124   4.099 -0.8820  1.3651  0.2122
 4497SOL     MW17988   0.608   2.069   4.088 -0.0643  0.3564  0.0388
 4498SOL     OW17989   0.115   1.964   1.991  0.1573  0.3984  0.3921
 4498SOL    HW117990   0.022   1.944   1.979  0.2216  0.5865 -0.4978
 4498SOL    HW217991   0.134   2.031   1.926  1.0102  0.0877  0.3000
 4498SOL     MW17992   0.106   1.970   1.981  0.2747  0.3827  0.2664
 4499SOL     OW17993   3.864   3.201   2.555 -0.3422  0.2319  0.2009
 4499SOL    HW117994   3.885   3.117   2.597  1.3529  0.3583 -0.3263
 4499SOL    HW217995   3.805   3.244   2.617 -0.8555 -1.1380  0.7101
 4499SOL     MW17996   3.859   3.196   2.568 -0.1909  0.0727  0.1986
 4500SOL     OW17997   3.467   3.400   0.950 -0.0264  0.3551  0.4528
 4500SOL    HW117998   3.447   3.407   0.856 -1.3144 -0.5608  0.6245
 4500SOL    HW217999   3.431   3.315   0.975  1.1137  0.1856  1.6031
 4500SOL     MW18000   3.460   3.390   0.941 -0.0453  0.2162  0.6221
 4501SOL     OW18001   4.473   1.896   1.664  0.0179 -0.2332 -0.0865
 4501SOL    HW118002   4.441   1.879   1.575 -2.5616 -0.7231  0.8547
 4501SOL    HW218003   4.438   1.983   1.686 -0.4158 -0.6257  0.8473
 4501SOL     MW18004   4.464   1.905   1.655 -0.3678 -0.3462  0.1535
 4502SOL     OW18005   4.567   0.871   2.943  0.5583  0.1175 -0.1849
 4502SOL    HW118006   4.572   0.816   2.864 -0.8601 -0.0659 -0.1796
 4502SOL    HW218007   4.478   0.859   2.974  1.4709 -0.8560  2.2340
 4502SOL     MW18008   4.556   0.862   2.937  0.4936 -0.0306  0.1254
 4503SOL     OW18009   1.292   4.398   2.145  0.4608  0.1512  0.0928
 4503SOL    HW118010   1.354   4.352   2.088  0.5520  0.6442 -0.2064
 4503SOL    HW218011   1.206   4.373   2.111  0.4428 -1.4258  1.1908
 4503SOL     MW18012   1.289   4.389   2.133  0.4702  0.0124  0.1950
 4504SOL     OW18013   0.113   4.485   2.748 -0.0345 -0.1901 -0.2429
 4504SOL    HW118014   0.045   4.429   2.784 -1.2430  0.7623 -0.9513
 4504SOL    HW218015   0.125   4.454   2.658  1.8666 -1.5677  0.4210
 4504SOL     MW18016   0.106   4.474   2.741  0.0542 -0.2445 -0.2486
 4505SOL     OW18017   3.594   4.806   1.943  0.0089  0.9603 -0.1851
 4505SOL    HW118018   3.578   4.716   1.969  2.4178 -0.1773 -2.2307
 4505SOL    HW218019   3.512   4.834   1.902 -0.7997 -0.2554  0.5629
 4505SOL     MW18020   3.581   4.798   1.941  0.2138  0.6590 -0.3512
 4506SOL     OW18021   4.091   4.279   4.959 -0.4912  0.8474 -0.3689
 4506SOL    HW118022   4.013   4.236   4.994 -0.1026  0.9117  0.6139
 4506SOL    HW218023   4.161   4.213   4.966 -0.0526  1.3849  0.4899
 4506SOL     MW18024   4.090   4.265   4.964 -0.3853  0.9244 -0.1331
 4507SOL     OW18025   1.089   1.071   0.088 -0.0331 -0.6220 -0.2928
 4507SOL    HW118026   1.074   0.983   0.053 -0.5482 -0.5880 -0.1656
 4507SOL    HW218027   1.076   1.062   0.183 -1.4710 -0.1310 -0.4229
 4507SOL     MW18028   1.086   1.058   0.096 -0.2831 -0.5548 -0.2931
 4508SOL     OW18029   0.484   0.203   0.569 -0.0405 -0.0921 -0.1294
 4508SOL    HW118030   0.467   0.287   0.611  1.2269 -0.0804  0.4169
 4508SOL    HW218031   0.429   0.202   0.491 -0.7495  0.8507  0.3532
 4508SOL     MW18032   0.475   0.213   0.565  0.0310  0.0301  0.0023
 4509SOL     OW18033   4.304   1.517   4.576  0.1620  0.3258  0.6297
 4509SOL    HW118034   4.333   1.459   4.506 -1.3557  0.2657  0.0266
 4509SOL    HW218035   4.213   1.536   4.556 -0.4850 -0.1115  2.8634
 4509SOL     MW18036   4.296   1.512   4.565 -0.1151  0.2621  0.8384
 4510SOL     OW18037   0.803   3.142   1.969  0.5773 -0.0212  0.5999
 4510SOL    HW118038   0.797   3.140   1.873 -0.7522  0.4242  0.6582
 4510SOL    HW218039   0.812   3.050   1.994  0.5129 -0.1755  0.0622
 4510SOL     MW18040   0.803   3.130   1.960  0.3989  0.0161  0.5385
 4511SOL     OW18041   3.429   1.323   0.593 -0.2537  0.5168  0.2951
 4511SOL    HW118042   3.516   1.339   0.557 -0.0361 -1.0028  0.0973
 4511SOL    HW218043   3.416   1.395   0.655  1.7030  0.0759  1.3074
 4511SOL     MW18044   3.438   1.335   0.596  0.0247  0.2658  0.3994
 4512SOL     OW18045   1.899   2.501   0.691 -0.4579 -0.1240  0.2867
 4512SOL    HW118046   1.864   2.525   0.605 -0.9055  1.6428  0.9198
 4512SOL    HW218047   1.992   2.522   0.686 -0.6580  0.8826  0.5080
 4512SOL     MW18048   1.906   2.507   0.679 -0.5408  0.2310  0.3960
 4513SOL     OW18049   2.383   5.126   3.907 -0.2395 -0.3931  0.7862
 4513SOL    HW118050   2.296   5.148   3.873 -0.0607 -0.2115  0.4384
 4513SOL    HW218051   2.366   5.072   3.984 -0.6752  0.0998  1.0471
 4513SOL     MW18052   2.369   5.122   3.912 -0.2724 -0.3068  0.7750
 4514SOL     OW18053   2.155   3.313   0.996 -0.2321  0.6447  0.2001
 4514SOL    HW118054   2.190   3.347   1.079 -1.2563  1.3072  0.3784
 4514SOL    HW218055   2.106   3.235   1.021 -1.1015  1.2190  0.3233
 4514SOL     MW18056   2.154   3.307   1.010 -0.4745  0.8030  0.2387
 4515SOL     OW18057   3.904   1.121   4.453 -0.5505  0.4752  0.3055
 4515SOL    HW118058   3.821   1.081   4.427 -1.3354  2.5365 -0.5604
 4515SOL    HW218059   3.888   1.152   4.543 -0.9760  1.4553 -0.0942
 4515SOL     MW18060   3.891   1.120   4.461 -0.7054  0.8646  0.1435
 4516SOL     OW18061   4.740   2.129   1.651  0.3872  0.2529  0.5651
 4516SOL    HW118062   4.809   2.073   1.616  0.0543  1.5622 -2.4739
 4516SOL    HW218063   4.782   2.214   1.663 -0.1096  0.4282  1.0889
 4516SOL     MW18064   4.754   2.132   1.648  0.2810  0.4429  0.2431
 4517SOL     OW18065   1.296   1.676   2.129 -0.1477  0.2615  0.7639
 4517SOL    HW118066   1.252   1.591   2.126  2.0407 -0.9417 -1.8597
 4517SOL    HW218067   1.226   1.739   2.143 -2.8449 -1.5132 -2.9803
 4517SOL     MW18068   1.282   1.673   2.131 -0.2128 -0.1197 -0.0512
 4518SOL     OW18069   1.896   0.429   2.501  0.1749 -0.4307  0.5325
 4518SOL    HW118070   1.916   0.362   2.567 -0.0421 -0.5969  0.4289
 4518SOL    HW218071   1.951   0.407   2.426  0.8860  0.1157  0.8762
 4518SOL     MW18072   1.906   0.418   2.500  0.2382 -0.3821  0.5633
 4519SOL     OW18073   1.097   1.939   2.709  0.5176  0.2633  0.0043
 4519SOL    HW118074   1.011   1.924   2.671  0.6436 -0.1485 -0.1362
 4519SOL    HW218075   1.157   1.935   2.634  0.7219 -0.0976  0.1835
 4519SOL     MW18076   1.094   1.936   2.694  0.5599  0.1644  0.0093
 4520SOL     OW18077   2.248   4.794   0.233  0.1162  0.2167 -0.3110
 4520SOL    HW118078   2.263   4.866   0.295  0.2536 -0.6324  0.6781
 4520SOL    HW218079   2.199   4.834   0.161 -0.9301  1.0534  0.8132
 4520SOL     MW18080   2.244   4.809   0.232 -0.0002  0.2151 -0.0404
 4521SOL     OW18081   4.586   3.966   1.885  0.3846  0.0097  0.4074
 4521SOL    HW118082   4.644   3.893   1.906  1.5151  1.0415  1.0138
 4521SOL    HW218083   4.645   4.035   1.854 -0.8264  0.0056 -2.2277
 4521SOL     MW18084   4.601   3.966   1.884  0.3743  0.1413  0.1477
 4522SOL     OW18085   4.969   4.990   3.245  0.0577  0.4501 -0.2849
 4522SOL    HW118086   4.923   5.006   3.162 -0.0556 -1.2264 -0.5768
 4522SOL    HW218087   4.981   4.895   3.248 -0.9949  0.3027  2.1809
 4522SOL     MW18088   4.964   4.980   3.235 -0.0916  0.2166 -0.0066
 4523SOL     OW18089   1.836   4.825   0.345 -0.0414 -0.8199 -0.1570
 4523SOL    HW118090   1.891   4.751   0.320 -1.8038 -2.0312 -0.5911
 4523SOL    HW218091   1.775   4.790   0.409 -0.4339  0.4463  0.1931
 4523SOL     MW18092   1.835   4.811   0.350 -0.3172 -0.8129 -0.1677
 4524SOL     OW18093   4.184   0.068   3.964 -0.0171 -0.3381  0.0329
 4524SOL    HW118094   4.091   0.080   3.945  0.6073  0.5201 -2.9940
 4524SOL    HW218095   4.218   0.019   3.889  2.1701  0.4262  0.4422
 4524SOL     MW18096   4.176   0.063   3.952  0.3429 -0.1304 -0.3022
 4525SOL     OW18097   0.046   0.218   1.209 -0.0481  0.0153 -0.2294
 4525SOL    HW118098  -0.027   0.213   1.272 -0.1260 -0.8561 -0.3666
 4525SOL    HW218099   0.124   0.229   1.264 -0.1198 -0.7045  0.0279
 4525SOL     MW18100   0.046   0.219   1.224 -0.0672 -0.1884 -0.2140
 4526SOL     OW18101   0.556   2.140   0.219 -0.2085 -0.2438  0.2083
 4526SOL    HW118102   0.493   2.160   0.289  0.5686  0.2476  0.7840
 4526SOL    HW218103   0.637   2.184   0.246 -0.0662  0.4947 -1.3082
 4526SOL     MW18104   0.558   2.148   0.231 -0.0908 -0.0864  0.0879
 4527SOL     OW18105   0.603   4.434   4.563  0.0066 -0.1283  0.6460
 4527SOL    HW118106   0.532   4.388   4.606  0.4112  0.4624  1.9913
 4527SOL    HW218107   0.667   4.451   4.632  1.1134  0.0294 -0.3718
 4527SOL     MW18108   0.602   4.430   4.577  0.2001 -0.0325  0.6880
 4528SOL     OW18109   4.935   2.149   0.577  0.4326 -0.0525 -0.7016
 4528SOL    HW118110   4.901   2.065   0.546 -1.5169  0.1246  0.7550
 4528SOL    HW218111   4.868   2.213   0.552  1.6151  1.0054 -1.2677
 4528SOL     MW18112   4.922   2.146   0.570  0.3344  0.1056 -0.5876
 4529SOL     OW18113   0.441   4.028   0.823  0.2493 -0.1855 -0.4269
 4529SOL    HW118114   0.521   3.993   0.863  0.6898  2.2383  1.0402
 4529SOL    HW218115   0.372   3.967   0.850  1.1193 -0.5568  1.1080
 4529SOL     MW18116   0.443   4.016   0.832  0.4171  0.0772 -0.0426
 4530SOL     OW18117   4.444   4.217   3.508  0.4658  0.2000 -0.0349
 4530SOL    HW118118   4.483   4.138   3.472  0.0556 -0.0911  0.1490
 4530SOL    HW218119   4.512   4.253   3.565  0.7946  0.1915 -0.4179
 4530SOL     MW18120   4.457   4.212   3.511  0.4554  0.1616 -0.0604
 4531SOL     OW18121   5.243   3.743   3.646  0.0807 -0.0906 -0.5647
 4531SOL    HW118122   5.177   3.673   3.649 -0.9201  0.8540  1.1706
 4531SOL    HW218123   5.301   3.725   3.720  1.0813 -0.2467 -1.3750
 4531SOL     MW18124   5.242   3.732   3.656  0.0807  0.0103 -0.4463
 4532SOL     OW18125   3.479   1.037   4.112  0.1221 -0.6768  0.0573
 4532SOL    HW118126   3.489   0.968   4.047 -0.6605  0.7786 -1.7076
 4532SOL    HW218127   3.406   1.090   4.080  0.3718  0.6929  1.5971
 4532SOL     MW18128   3.470   1.035   4.100  0.0539 -0.3152  0.0285
 4533SOL     OW18129   2.635   1.439   3.379  0.1318  0.0772  0.0687
 4533SOL    HW118130   2.624   1.362   3.435 -2.0242  0.7246  0.6546
 4533SOL    HW218131   2.726   1.466   3.392 -0.3805  0.5097  3.7507
 4533SOL     MW18132   2.645   1.433   3.388 -0.2097  0.2154  0.6150
 4534SOL     OW18133   3.185   5.235   4.954 -0.4589 -0.3629 -0.2658
 4534SOL    HW118134   3.234   5.253   4.874 -1.9931  0.2330 -1.1046
 4534SOL    HW218135   3.214   5.147   4.980  0.8053 -0.1523 -0.8937
 4534SOL     MW18136   3.195   5.226   4.947 -0.4935 -0.2597 -0.4535
 4535SOL     OW18137   5.270   0.775   0.722  0.1614 -0.3043  0.0887
 4535SOL    HW118138   5.189   0.731   0.748  0.0044 -0.1806 -0.1855
 4535SOL    HW218139   5.276   0.760   0.628  1.4640 -1.9762  0.3885
 4535SOL     MW18140   5.261   0.767   0.713  0.3081 -0.5025  0.0920
 4536SOL     OW18141   4.523   3.344   2.151  0.2841  0.0809 -0.3882
 4536SOL    HW118142   4.517   3.439   2.142  1.5775  0.2185 -0.0296
 4536SOL    HW218143   4.448   3.320   2.206 -0.0527  0.8942 -0.4879
 4536SOL     MW18144   4.513   3.353   2.157  0.4066  0.2026 -0.3551
 4537SOL     OW18145   2.708   4.456   1.751  0.3388  0.2966  0.3598
 4537SOL    HW118146   2.778   4.394   1.770 -0.1886 -0.4002  0.0823
 4537SOL    HW218147   2.752   4.540   1.741  1.3675 -0.3832 -1.4441
 4537SOL     MW18148   2.722   4.459   1.752  0.4030  0.1204  0.0933
 4538SOL     OW18149   5.331   3.875   1.865  0.3686  0.0537  0.2240
 4538SOL    HW118150   5.354   3.947   1.924  1.0346 -0.4907  0.6499
 4538SOL    HW218151   5.414   3.851   1.824  0.5596 -1.7409  1.5306
 4538SOL     MW18152   5.345   3.881   1.867  0.4783 -0.2457  0.4458
 4539SOL     OW18153   3.060   4.767   0.113 -0.1295  0.6120  0.7368
 4539SOL    HW118154   3.117   4.748   0.187  2.0996 -0.1080 -1.0280
 4539SOL    HW218155   2.986   4.706   0.123  0.7486 -0.3226  1.7198
 4539SOL     MW18156   3.058   4.756   0.124  0.2682  0.4002  0.6367
 4540SOL     OW18157   0.375   3.135   1.256 -0.4201 -0.3362 -0.1320
 4540SOL    HW118158   0.423   3.146   1.174 -0.7710 -0.4681 -0.3569
 4540SOL    HW218159   0.404   3.051   1.290 -2.4319 -1.7038 -1.5977
 4540SOL     MW18160   0.385   3.126   1.250 -0.7226 -0.5282 -0.3484
 4541SOL     OW18161   1.762   0.808   2.789  0.0123  0.3404 -0.0052
 4541SOL    HW118162   1.785   0.901   2.788 -1.1877  0.6566 -1.0103
 4541SOL    HW218163   1.810   0.770   2.716 -0.5329  0.4519 -0.4265
 4541SOL     MW18164   1.771   0.815   2.780 -0.2111  0.3952 -0.1878
 4542SOL     OW18165   2.118   2.560   2.642  0.0597 -0.3454 -0.1734
 4542SOL    HW118166   2.049   2.568   2.707 -1.3157 -0.1982 -1.5867
 4542SOL    HW218167   2.104   2.474   2.602  1.8526 -1.1043  0.7521
 4542SOL     MW18168   2.107   2.550   2.645  0.1132 -0.4237 -0.2358
 4543SOL     OW18169   1.007   2.303   1.510 -0.5700 -0.1842  1.2193
 4543SOL    HW118170   0.968   2.390   1.498 -0.6275  0.0543  2.9655
 4543SOL    HW218171   0.950   2.260   1.574  0.6156 -0.7461  1.9204
 4543SOL     MW18172   0.994   2.309   1.516 -0.4256 -0.2256  1.5326
 4544SOL     OW18173   4.865   5.018   2.680  0.4938  0.3148 -0.1792
 4544SOL    HW118174   4.899   5.025   2.769 -1.6272 -0.1935  0.7308
 4544SOL    HW218175   4.865   4.924   2.662 -1.5305  0.1625  0.3626
 4544SOL     MW18176   4.869   5.007   2.689 -0.0369  0.2302  0.0067
 4545SOL     OW18177   1.147   2.866   0.540 -0.2160  0.0697  0.2478
 4545SOL    HW118178   1.063   2.821   0.533  0.1599 -0.4106 -1.4544
 4545SOL    HW218179   1.125   2.959   0.536 -0.7873  0.0234  1.5557
 4545SOL     MW18180   1.133   2.873   0.539 -0.2410  0.0023  0.1973
 4546SOL     OW18181   1.403   5.485   4.788  0.2293 -0.5468  0.2208
 4546SOL    HW118182   1.478   5.434   4.820 -0.1082 -0.4343  1.2240
 4546SOL    HW218183   1.400   5.466   4.694  2.1562  0.2690 -0.0666
 4546SOL     MW18184   1.412   5.476   4.780  0.4328 -0.4280  0.3124
 4547SOL     OW18185   3.208   2.702   4.733  0.7821 -0.1344 -0.2082
 4547SOL    HW118186   3.132   2.717   4.677  0.6760 -1.0861 -0.3362
 4547SOL    HW218187   3.271   2.769   4.707  0.1118  0.4467 -0.3361
 4547SOL     MW18188   3.206   2.712   4.723  0.6827 -0.1819 -0.2409
 4548SOL     OW18189   0.412   2.433   3.265  0.6265 -0.5704  0.0252
 4548SOL    HW118190   0.324   2.414   3.233  0.3450  0.7349 -0.0222
 4548SOL    HW218191   0.469   2.403   3.194  0.0535  1.4124 -1.3437
 4548SOL     MW18192   0.408   2.426   3.252  0.5171 -0.1495 -0.1561
 4549SOL     OW18193   4.916   1.238   4.668  0.4639  0.3038  0.4321
 4549SOL    HW118194   4.976   1.201   4.603  0.9785  0.0278  1.0568
 4549SOL    HW218195   4.971   1.255   4.744 -0.2050  0.2976  0.9207
 4549SOL     MW18196   4.931   1.235   4.669  0.4442  0.2677  0.5746
 4550SOL     OW18197   3.451   0.318   1.896  0.1080  0.3637  0.1506
 4550SOL    HW118198   3.407   0.276   1.822  0.3970 -0.7769  0.6072
 4550SOL    HW218199   3.544   0.318   1.873  0.2143 -0.1021  0.5469
 4550SOL     MW18200   3.457   0.312   1.884  0.1586  0.1581  0.2598
 4551SOL     OW18201   1.481   2.047   4.871 -0.1901  0.6884  0.4526
 4551SOL    HW118202   1.534   1.968   4.860  0.2659  0.9959  0.4500
 4551SOL    HW218203   1.490   2.069   4.964 -0.7079  0.4672  0.5624
 4551SOL     MW18204   1.489   2.040   4.882 -0.1980  0.6994  0.4663
 4552SOL     OW18205   3.717   1.777   2.453 -0.5876 -0.6806 -0.1439
 4552SOL    HW118206   3.677   1.695   2.480 -0.9081 -1.6206 -3.0892
 4552SOL    HW218207   3.644   1.828   2.418 -0.0342 -0.1201 -0.4929
 4552SOL     MW18208   3.703   1.773   2.452 -0.5578 -0.7292 -0.5656
 4553SOL     OW18209   1.881   3.694   4.819 -0.7184 -0.1470 -0.3839
 4553SOL    HW118210   1.921   3.607   4.828 -0.7731 -0.2540 -1.1003
 4553SOL    HW218211   1.819   3.699   4.891 -0.7181 -0.7052 -0.3367
 4553SOL     MW18212   1.878   3.683   4.830 -0.7254 -0.2322 -0.4696
 4554SOL     OW18213   3.101   0.486   1.216 -0.3131  0.1227  0.2680
 4554SOL    HW118214   3.011   0.459   1.195 -0.9966  0.6631  2.2431
 4554SOL    HW218215   3.104   0.579   1.194 -0.3768  0.2076  0.6195
 4554SOL     MW18216   3.090   0.495   1.211 -0.4088  0.2028  0.5658
 4555SOL     OW18217   3.798   0.695   4.919  0.0749 -0.5603  0.1128
 4555SOL    HW118218   3.804   0.777   4.870  0.4602 -0.9061 -0.4320
 4555SOL    HW218219   3.733   0.712   4.987  0.0194  0.1380 -0.1083
 4555SOL     MW18220   3.791   0.708   4.922  0.1171 -0.5151  0.0148
 4556SOL     OW18221   4.603   2.728   5.226 -0.6156 -0.5638 -0.2704
 4556SOL    HW118222   4.586   2.640   5.194 -1.5572 -0.5320  0.0996
 4556SOL    HW218223   4.516   2.764   5.244 -0.1992  0.0774  0.5239
 4556SOL     MW18224   4.590   2.722   5.224 -0.6828 -0.4776 -0.1214
 4557SOL     OW18225   5.135   3.915   1.692 -0.5652  0.0958  0.2179
 4557SOL    HW118226   5.062   3.954   1.740 -1.0772 -1.3839  0.6964
 4557SOL    HW218227   5.207   3.913   1.755 -0.9004 -0.8131  0.5833
 4557SOL     MW18228   5.135   3.920   1.706 -0.6736 -0.2100  0.3259
 4558SOL     OW18229   2.163   1.710   1.884 -0.4080  0.4445 -0.2210
 4558SOL    HW118230   2.242   1.759   1.906 -0.0999 -0.7646  1.6274
 4558SOL    HW218231   2.173   1.686   1.792  1.6837 -0.1810  0.1187
 4558SOL     MW18232   2.174   1.713   1.875 -0.1008  0.2096  0.0591
 4559SOL     OW18233   4.477   2.560   2.782  0.3577 -0.1357  0.1877
 4559SOL    HW118234   4.520   2.502   2.845 -0.5906 -0.2001  0.7936
 4559SOL    HW218235   4.506   2.648   2.807  0.4592 -0.2125  0.3461
 4559SOL     MW18236   4.486   2.564   2.794  0.2493 -0.1537  0.2855
 4560SOL     OW18237   3.753   1.141   1.363 -0.2212 -0.1766 -0.3369
 4560SOL    HW118238   3.670   1.155   1.319  0.2621  1.0404 -0.9114
 4560SOL    HW218239   3.819   1.173   1.302  0.5164  0.8997  0.9572
 4560SOL     MW18240   3.751   1.147   1.350 -0.0649  0.1170 -0.2448
 4561SOL     OW18241   3.035   3.868   4.822 -0.0722  0.1933  0.4349
 4561SOL    HW118242   3.064   3.956   4.802  0.6748  0.2688  1.8052
 4561SOL    HW218243   2.960   3.854   4.763  1.1417  0.8929 -1.3818
 4561SOL     MW18244   3.029   3.877   4.812  0.1788  0.2925  0.3778
 4562SOL     OW18245   0.972   1.122   2.527  0.7389 -0.3694 -0.0892
 4562SOL    HW118246   0.956   1.186   2.597  2.5886 -1.7430  1.7164
 4562SOL    HW218247   1.058   1.145   2.492  0.2337 -0.2641 -1.3069
 4562SOL     MW18248   0.981   1.133   2.531  0.9110 -0.5318 -0.0140
 4563SOL     OW18249   5.304   1.738   1.682  0.0168 -0.4646  0.2114
 4563SOL    HW118250   5.251   1.665   1.713 -0.5343 -0.7072 -1.2043
 4563SOL    HW218251   5.297   1.804   1.750 -0.4282 -1.2831  0.9825
 4563SOL     MW18252   5.296   1.737   1.695 -0.1107 -0.6005  0.1289
 4564SOL     OW18253   0.468   0.845   2.419  0.3292 -0.0398  0.6202
 4564SOL    HW118254   0.412   0.804   2.353 -0.0011  1.0239  0.2222
 4564SOL    HW218255   0.415   0.915   2.456  1.5896  1.4250 -0.2342
 4564SOL     MW18256   0.454   0.848   2.415  0.4483  0.2839  0.4599
 4565SOL     OW18257   2.120   4.904   5.088 -0.4876  0.0611  0.4002
 4565SOL    HW118258   2.204   4.862   5.068 -0.6814  0.6314 -2.0049
 4565SOL    HW218259   2.141   4.967   5.157  0.4615 -1.6310  1.7460
 4565SOL     MW18260   2.133   4.907   5.094 -0.3909 -0.0825  0.2646
 4566SOL     OW18261   3.020   2.969   0.115  0.1910  0.3250  0.2404
 4566SOL    HW118262   3.097   3.009   0.155 -1.1967  1.6798  1.7101
 4566SOL    HW218263   2.985   3.037   0.057 -2.1519  1.4010  2.7039
 4566SOL     MW18264   3.025   2.982   0.113 -0.2865  0.6362  0.7439
 4567SOL     OW18265   3.462   3.416   2.867  0.2912 -0.2931  0.2373
 4567SOL    HW118266   3.479   3.455   2.953 -0.8275  0.6938  0.0466
 4567SOL    HW218267   3.481   3.485   2.804  0.5391 -0.8188 -0.2768
 4567SOL     MW18268   3.466   3.430   2.870  0.1797 -0.2341  0.1471
 4568SOL     OW18269   2.485   0.161   3.513  0.2958  0.4435  0.0576
 4568SOL    HW118270   2.415   0.201   3.461 -0.6530  0.5532  1.3755
 4568SOL    HW218271   2.527   0.098   3.453 -2.1070 -0.9765 -0.2339
 4568SOL     MW18272   2.482   0.158   3.499 -0.1332  0.2758  0.1890
 4569SOL     OW18273   0.266   1.347   4.616  0.1199 -0.2073  0.7718
 4569SOL    HW118274   0.323   1.421   4.593 -1.0681  0.4289 -0.2369
 4569SOL    HW218275   0.195   1.350   4.551 -2.4210  0.5141  3.3969
 4569SOL     MW18276   0.264   1.357   4.604 -0.3575 -0.0335  0.9787
 4570SOL     OW18277   1.791   4.761   4.431 -0.4107  0.0823 -0.2992
 4570SOL    HW118278   1.737   4.739   4.355 -1.3245 -0.9637  0.6175
 4570SOL    HW218279   1.762   4.848   4.457 -0.9046 -0.0274 -0.4712
 4570SOL     MW18280   1.781   4.769   4.425 -0.5909 -0.0657 -0.2038
 4571SOL     OW18281   2.364   4.750   3.205  0.4977 -0.3048 -0.1548
 4571SOL    HW118282   2.292   4.796   3.161  0.8243  0.2224 -0.1543
 4571SOL    HW218283   2.330   4.663   3.223 -0.3629  0.1295  0.4108
 4571SOL     MW18284   2.350   4.745   3.202  0.4293 -0.1817 -0.0823
 4572SOL     OW18285   0.317   5.205   1.309 -0.5686  0.2254  0.6552
 4572SOL    HW118286   0.338   5.285   1.259  1.3914 -0.5843  0.0962
 4572SOL    HW218287   0.383   5.142   1.281 -1.7009 -1.4137  1.5723
 4572SOL     MW18288   0.328   5.207   1.299 -0.4626 -0.0881  0.7010
 4573SOL     OW18289   3.910   1.939   0.621  0.3744  0.7525 -0.2359
 4573SOL    HW118290   4.001   1.921   0.643 -0.2003 -1.4237  0.6789
 4573SOL    HW218291   3.894   1.889   0.541 -0.9652 -2.3823  1.7517
 4573SOL     MW18292   3.920   1.930   0.614  0.1293  0.0726  0.1356
 4574SOL     OW18293   1.727   1.096   0.494  0.0589  0.0274  0.0348
 4574SOL    HW118294   1.713   1.031   0.562  1.0971  0.9578  1.1863
 4574SOL    HW218295   1.684   1.060   0.417 -0.4133 -1.4493  0.9521
 4574SOL     MW18296   1.720   1.083   0.493  0.1314 -0.0425  0.2996
 4575SOL     OW18297   4.749   3.093   1.457 -0.3706 -0.0657  0.1200
 4575SOL    HW118298   4.669   3.109   1.508 -0.2896  0.0395  0.2139
 4575SOL    HW218299   4.782   3.009   1.489 -1.0397 -0.6519 -0.6845
 4575SOL     MW18300   4.743   3.084   1.467 -0.4459 -0.1272  0.0290
 4576SOL     OW18301   1.952   0.772   1.924  0.0069  0.1601  0.5461
 4576SOL    HW118302   1.928   0.865   1.920 -0.6283 -0.0246 -0.2967
 4576SOL    HW218303   2.047   0.772   1.919  0.0618  0.8008  1.3814
 4576SOL     MW18304   1.961   0.784   1.923 -0.0674  0.2185  0.5452
 4577SOL     OW18305   5.132   2.196   2.270  0.3152  0.3834 -0.1005
 4577SOL    HW118306   5.158   2.235   2.353  0.0109  0.6902 -0.1449
 4577SOL    HW218307   5.045   2.234   2.252  1.5290  2.5228 -1.9353
 4577SOL     MW18308   5.124   2.206   2.278  0.4316  0.6966 -0.3411
 4578SOL     OW18309   4.833   2.859   0.116 -0.6385 -0.5046  0.1874
 4578SOL    HW118310   4.820   2.764   0.116 -0.2778 -0.6528 -2.5498
 4578SOL    HW218311   4.927   2.871   0.100 -0.7241  0.3083  0.2281
 4578SOL     MW18312   4.843   2.848   0.114 -0.6033 -0.4195 -0.1578
 4579SOL     OW18313   0.937   2.229   5.167 -0.1129  0.3723  0.3543
 4579SOL    HW118314   0.980   2.151   5.131 -0.8860 -0.3453  0.9277
 4579SOL    HW218315   0.951   2.222   5.262  0.2764  1.2271  0.3710
 4579SOL     MW18316   0.944   2.218   5.175 -0.1620  0.3899  0.4298
 4580SOL     OW18317   2.204   3.082   2.092 -0.0632  0.2519 -0.2463
 4580SOL    HW118318   2.168   3.078   2.181 -0.0180 -1.6146 -0.2824
 4580SOL    HW218319   2.127   3.081   2.035 -0.2776 -5.5636 -0.3971
 4580SOL     MW18320   2.190   3.081   2.096 -0.0849 -0.7315 -0.2702
 4581SOL     OW18321   3.831   3.946   4.866 -0.0661 -0.4492  0.3262
 4581SOL    HW118322   3.835   4.020   4.926  0.2554  0.4647 -0.7805
 4581SOL    HW218323   3.918   3.944   4.824 -0.4059 -0.8043 -0.3879
 4581SOL     MW18324   3.843   3.955   4.868 -0.0684 -0.3777  0.0931
 4582SOL     OW18325   0.130   2.323   1.456 -0.1291  0.0212 -0.3502
 4582SOL    HW118326   0.112   2.236   1.420 -2.3521  0.9020 -1.5719
 4582SOL    HW218327   0.167   2.372   1.383  1.3948  0.0481  0.4163
 4582SOL     MW18328   0.132   2.318   1.442 -0.2186  0.1374 -0.4085
 4583SOL     OW18329   3.573   3.757   3.558 -0.1872 -0.2453  0.5748
 4583SOL    HW118330   3.575   3.673   3.513  0.8759  0.3468 -0.5446
 4583SOL    HW218331   3.483   3.765   3.591 -1.0632 -0.6515 -1.5645
 4583SOL     MW18332   3.561   3.747   3.557 -0.1633 -0.2215  0.1577
 4584SOL     OW18333   4.101   2.676   0.905  0.0345  0.3330 -0.2985
 4584SOL    HW118334   4.039   2.614   0.942  1.4408 -1.4862 -0.8346
 4584SOL    HW218335   4.137   2.722   0.981 -2.4351  1.9955 -0.0256
 4584SOL     MW18336   4.098   2.674   0.920 -0.1016  0.3129 -0.3322
 4585SOL     OW18337   3.963   2.543   3.297  0.0852 -0.3601  0.4318
 4585SOL    HW118338   3.943   2.588   3.216  0.9155  0.0218  0.4329
 4585SOL    HW218339   4.033   2.482   3.274  0.4149 -0.1584  0.8807
 4585SOL     MW18340   3.970   2.541   3.284  0.2337 -0.2854  0.4894
 4586SOL     OW18341   5.289   4.384   4.125 -0.2213  0.1073 -0.0757
 4586SOL    HW118342   5.335   4.313   4.079  1.2791  0.7834  0.3346
 4586SOL    HW218343   5.349   4.412   4.193 -0.5751  2.1048 -0.5215
 4586SOL     MW18344   5.302   4.378   4.128 -0.0745  0.4495 -0.0803
 4587SOL     OW18345   3.583   2.179   3.782 -0.6392  0.2510  0.2563
 4587SOL    HW118346   3.582   2.094   3.738 -0.9488  0.2200  0.3169
 4587SOL    HW218347   3.560   2.242   3.713 -0.7098  0.2503  0.2791
 4587SOL     MW18348   3.580   2.176   3.768 -0.6879  0.2469  0.2670
 4588SOL     OW18349   5.244   0.323   2.411 -0.4036 -0.3364 -0.3910
 4588SOL    HW118350   5.297   0.272   2.473 -0.2050  0.4361  0.0916
 4588SOL    HW218351   5.286   0.309   2.326 -0.7100 -1.4528 -0.3696
 4588SOL     MW18352   5.256   0.315   2.408 -0.4174 -0.3804 -0.3265
 4589SOL     OW18353   2.212   3.367   0.007 -0.2008  0.1245 -0.7654
 4589SOL    HW118354   2.223   3.297   0.072  1.5861  0.7279 -0.3512
 4589SOL    HW218355   2.175   3.323  -0.069  1.5933 -1.4984 -0.8010
 4589SOL     MW18356   2.209   3.352   0.006  0.2576 -0.0060 -0.7169
 4590SOL     OW18357   3.867   3.100   2.099  0.1412 -0.3586 -0.1530
 4590SOL    HW118358   3.939   3.088   2.036  0.0740 -0.8350 -0.1442
 4590SOL    HW218359   3.882   3.032   2.165 -0.2235 -0.3506 -0.0599
 4590SOL     MW18360   3.879   3.090   2.099  0.0859 -0.4185 -0.1400
 4591SOL     OW18361   4.415   0.069   4.348 -0.0311 -0.2007 -0.2602
 4591SOL    HW118362   4.429   0.160   4.324 -0.7077 -0.0548 -0.1369
 4591SOL    HW218363   4.348   0.073   4.416  0.8558 -0.6986  0.6758
 4591SOL     MW18364   4.408   0.081   4.354 -0.0042 -0.2457 -0.1246
 4592SOL     OW18365   5.131   0.618   5.099 -0.1399 -0.6666 -0.4795
 4592SOL    HW118366   5.221   0.614   5.131 -1.0034 -0.1951  2.2556
 4592SOL    HW218367   5.139   0.602   5.005  3.0632  2.0362 -0.8532
 4592SOL     MW18368   5.144   0.615   5.091  0.1596 -0.2602 -0.1772
 4593SOL     OW18369   1.654   3.438   4.498  0.8314 -0.0810 -0.1088
 4593SOL    HW118370   1.620   3.405   4.415  0.4865 -0.5038  0.1948
 4593SOL    HW218371   1.597   3.512   4.520  1.3853  0.5140 -0.6118
 4593SOL     MW18372   1.642   3.443   4.490  0.8582 -0.0589 -0.1344
 4594SOL     OW18373   0.592   2.299   3.068  0.5802 -0.1327 -0.1471
 4594SOL    HW118374   0.639   2.381   3.081 -1.2437  0.8555  0.4196
 4594SOL    HW218375   0.647   2.250   3.006  3.4394  0.0496  2.0063
 4594SOL     MW18376   0.605   2.303   3.062  0.7127  0.0171  0.2011
 4595SOL     OW18377   1.636   1.850   4.744  0.4061  0.4565 -0.3454
 4595SOL    HW118378   1.638   1.756   4.760 -0.0897  0.4354 -0.3825
 4595SOL    HW218379   1.720   1.882   4.777 -0.1272  0.2622  1.2822
 4595SOL     MW18380   1.647   1.842   4.750  0.2744  0.4289 -0.1418
 4596SOL     OW18381   1.794   5.320   3.151  0.3908 -0.9701 -0.2234
 4596SOL    HW118382   1.881   5.283   3.163  0.2526 -1.1801  0.1438
 4596SOL    HW218383   1.808   5.414   3.142  0.6004 -0.9336  0.4356
 4596SOL     MW18384   1.807   5.327   3.151  0.3999 -0.9923 -0.0920
 4597SOL     OW18385   2.298   2.795   2.067  0.1466 -0.0712  0.6338
 4597SOL    HW118386   2.362   2.841   2.122 -0.6200  0.7785  0.8318
 4597SOL    HW218387   2.244   2.864   2.031  0.0096 -0.7061 -0.4020
 4597SOL     MW18388   2.299   2.810   2.070  0.0309 -0.0437  0.5266
 4598SOL     OW18389   0.174   1.627   4.398 -0.7806 -0.3653 -0.3591
 4598SOL    HW118390   0.228   1.642   4.320 -0.6797 -1.0165 -0.4231
 4598SOL    HW218391   0.231   1.653   4.471 -0.2706 -1.2823 -0.4116
 4598SOL     MW18392   0.188   1.632   4.397 -0.7024 -0.5661 -0.3740
 4599SOL     OW18393   2.613   1.310   3.159 -0.4969  0.1474  0.0807
 4599SOL    HW118394   2.612   1.340   3.250  1.1992  1.9176 -0.4124
 4599SOL    HW218395   2.703   1.281   3.144 -1.2750 -2.3043 -0.4572
 4599SOL     MW18396   2.624   1.310   3.169 -0.3794  0.0601 -0.0513
 4600SOL     OW18397   2.509   5.243   3.209 -0.3135 -0.5575  0.3350
 4600SOL    HW118398   2.428   5.253   3.258 -0.5909 -0.6545 -0.0999
 4600SOL    HW218399   2.578   5.260   3.273 -0.6942  0.6050  0.4602
 4600SOL     MW18400   2.508   5.246   3.223 -0.3978 -0.4211  0.2953
 4601SOL     OW18401   1.830   4.227   0.390  0.3126  0.1971  0.0812
 4601SOL    HW118402   1.863   4.208   0.303  1.0827  0.3399  0.3326
 4601SOL    HW218403   1.746   4.182   0.395 -0.2219  1.0258 -1.0840
 4601SOL     MW18404   1.824   4.219   0.380  0.3428  0.3215 -0.0358
 4602SOL     OW18405   3.698   4.184   2.858  0.3673 -0.0922 -0.0077
 4602SOL    HW118406   3.606   4.172   2.881  0.7956 -0.1430  1.8301
 4602SOL    HW218407   3.697   4.201   2.763 -1.7090  1.9535  0.2798
 4602SOL     MW18408   3.686   4.185   2.848  0.1563  0.1632  0.2644
 4603SOL     OW18409   4.166   3.640   3.923 -0.4449 -0.7193 -0.2623
 4603SOL    HW118410   4.250   3.687   3.923  0.0892 -1.6416  0.1933
 4603SOL    HW218411   4.103   3.703   3.888 -0.0380  0.8294  1.6122
 4603SOL     MW18412   4.169   3.654   3.919 -0.3244 -0.6391  0.0360
 4604SOL     OW18413   3.851   5.365   0.256 -0.2249  0.1303  0.5891
 4604SOL    HW118414   3.775   5.351   0.200  0.2715 -0.1943 -0.0131
 4604SOL    HW218415   3.833   5.313   0.334  0.1365 -1.3608 -0.2811
 4604SOL     MW18416   3.839   5.356   0.259 -0.1151 -0.1022  0.4006
 4605SOL     OW18417   1.966   3.372   2.895  0.0767 -0.4179 -0.0444
 4605SOL    HW118418   1.932   3.347   2.809  0.6426 -1.6057  0.0561
 4605SOL    HW218419   2.060   3.384   2.882  0.2417 -1.0312  0.4740
 4605SOL     MW18420   1.974   3.370   2.883  0.1702 -0.6485  0.0348
 4606SOL     OW18421   3.614   3.250   0.718 -0.1075  0.1128 -0.0068
 4606SOL    HW118422   3.553   3.315   0.684 -0.2060  0.2740  0.4660
 4606SOL    HW218423   3.638   3.284   0.805 -1.6035 -1.4044  1.0533
 4606SOL     MW18424   3.609   3.263   0.725 -0.3116 -0.0608  0.1894
 4607SOL     OW18425   0.354   3.442   1.880  0.2712 -0.3561 -0.3710
 4607SOL    HW118426   0.276   3.387   1.874  0.8306 -1.3687  1.0025
 4607SOL    HW218427   0.323   3.525   1.917 -0.3774 -0.1784 -1.2859
 4607SOL     MW18428   0.340   3.446   1.884  0.2598 -0.4630 -0.3123
 4608SOL     OW18429   5.247   4.661   1.247 -0.5180 -0.2140  0.0763
 4608SOL    HW118430   5.290   4.589   1.201  0.1853  0.7340 -0.8062
 4608SOL    HW218431   5.299   4.738   1.224 -1.3334  0.5997  0.8800
 4608SOL     MW18432   5.259   4.662   1.238 -0.5324  0.0115  0.0662
 4609SOL     OW18433   2.408   2.906   0.492  0.6824 -0.3492 -0.1402
 4609SOL    HW118434   2.427   2.898   0.399 -1.9809 -0.0221 -0.7894
 4609SOL    HW218435   2.314   2.891   0.499  0.2899  2.2413  2.1233
 4609SOL     MW18436   2.398   2.903   0.481  0.2912  0.0243  0.0665
 4610SOL     OW18437   2.532   4.151   1.865  0.2077 -0.2059  0.5529
 4610SOL    HW118438   2.591   4.075   1.869  0.4900  0.0230  0.7863
 4610SOL    HW218439   2.573   4.216   1.921 -0.6869 -0.3216  1.3611
 4610SOL     MW18440   2.545   4.149   1.872  0.1293 -0.1914  0.6862
 4611SOL     OW18441   5.184   2.997   2.963  0.1599 -0.0831  0.2407
 4611SOL    HW118442   5.093   3.022   2.950  0.9750  2.8118 -0.7878
 4611SOL    HW218443   5.190   2.974   3.055 -1.9207 -2.2041 -0.0438
 4611SOL     MW18444   5.173   2.997   2.973 -0.0021  0.0159  0.0726
 4612SOL     OW18445   5.332   2.876   3.670 -0.5643 -0.8525 -0.1590
 4612SOL    HW118446   5.277   2.947   3.705 -0.6311 -0.8804 -0.2067
 4612SOL    HW218447   5.283   2.796   3.692  0.0418 -0.9607  0.8853
 4612SOL     MW18448   5.319   2.875   3.677 -0.4952 -0.8699 -0.0314
 4613SOL     OW18449   4.181   2.079   3.623 -0.3701  0.1217 -0.1156
 4613SOL    HW118450   4.198   2.072   3.529 -0.1860  1.1186 -0.1619
 4613SOL    HW218451   4.248   2.138   3.656  0.1463 -0.9532  0.8219
 4613SOL     MW18452   4.192   2.085   3.615 -0.2804  0.1117 -0.0015
 4614SOL     OW18453   2.705   2.692   0.893 -0.1037  0.1088  0.4577
 4614SOL    HW118454   2.773   2.649   0.840  0.1922 -1.5005  2.0325
 4614SOL    HW218455   2.641   2.723   0.829  1.8882  1.3654 -1.0678
 4614SOL     MW18456   2.705   2.690   0.878  0.1892  0.0637  0.4640
 4615SOL     OW18457   2.296   0.062   0.034  0.3609  0.3413  0.3602
 4615SOL    HW118458   2.317   0.113   0.112 -2.0237  2.8817 -0.5172
 4615SOL    HW218459   2.366   0.082  -0.028  0.5802  0.8277  0.7682
 4615SOL     MW18460   2.308   0.071   0.036  0.0837  0.7287  0.3001
 4616SOL     OW18461   4.780   4.163   1.912 -0.0514  0.2397  0.2842
 4616SOL    HW118462   4.799   4.209   1.831 -0.3936  0.2246  0.1913
 4616SOL    HW218463   4.857   4.109   1.928  0.3890  0.9105  0.4417
 4616SOL     MW18464   4.792   4.162   1.904 -0.0388  0.3237  0.2925
 4617SOL     OW18465   1.748   0.186   0.432  0.2542 -0.6473 -0.2012
 4617SOL    HW118466   1.802   0.261   0.404  0.1109 -0.0133  1.1367
 4617SOL    HW218467   1.660   0.207   0.401  0.2714 -0.3949 -0.0845
 4617SOL     MW18468   1.744   0.199   0.425  0.2381 -0.5338 -0.0150
 4618SOL     OW18469   1.137   4.224   4.268  0.2602  0.6492 -0.3669
 4618SOL    HW118470   1.205   4.286   4.243 -0.2299  0.3713 -2.6679
 4618SOL    HW218471   1.065   4.242   4.207  0.2115 -2.2898 -1.3422
 4618SOL     MW18472   1.136   4.234   4.257  0.1912  0.2374 -0.7863
 4619SOL     OW18473   2.809   3.273   4.482  0.7915  0.3983 -0.0619
 4619SOL    HW118474   2.881   3.329   4.513 -0.2739  0.4521  2.5129
 4619SOL    HW218475   2.847   3.225   4.408  4.1041 -0.9071  2.2426
 4619SOL     MW18476   2.823   3.274   4.476  1.0792  0.2381  0.5627
 4620SOL     OW18477   1.266   0.839   3.265 -0.3250 -0.6411 -0.1749
 4620SOL    HW118478   1.348   0.873   3.302 -0.1765 -0.9007 -0.2634
 4620SOL    HW218479   1.264   0.747   3.292  0.5046 -1.2437 -2.0146
 4620SOL     MW18480   1.276   0.831   3.273 -0.1998 -0.7515 -0.4217
 4621SOL     OW18481   0.321   1.254   5.348 -0.2618 -0.4969  0.1714
 4621SOL    HW118482   0.387   1.262   5.280 -0.7148  0.0782 -0.2146
 4621SOL    HW218483   0.369   1.227   5.426  0.7224  1.5707  0.3573
 4621SOL     MW18484   0.336   1.252   5.349 -0.1938 -0.1586  0.1458
 4622SOL     OW18485   4.202   0.621   4.825 -0.3107  0.5384 -0.3569
 4622SOL    HW118486   4.284   0.663   4.850 -0.5446  1.1746 -0.6447
 4622SOL    HW218487   4.158   0.603   4.908  1.1914 -2.1021 -0.0030
 4622SOL     MW18488   4.207   0.624   4.839 -0.1484  0.2818 -0.3485
 4623SOL     OW18489   2.398   3.944   3.972 -0.7366  0.2586  0.1909
 4623SOL    HW118490   2.417   3.866   4.024 -0.8779 -1.4941 -2.2211
 4623SOL    HW218491   2.302   3.946   3.966 -0.6830 -1.1669 -2.1622
 4623SOL     MW18492   2.388   3.934   3.978 -0.7479 -0.1482 -0.4191
 4624SOL     OW18493   0.741   4.923   0.226  0.0727 -0.2899 -0.4140
 4624SOL    HW118494   0.685   4.915   0.148  1.1179 -0.5091 -1.1647
 4624SOL    HW218495   0.830   4.916   0.192  0.5321 -1.2491  0.9122
 4624SOL     MW18496   0.745   4.921   0.211  0.2653 -0.4408 -0.3403
 4625SOL     OW18497   3.480   0.551   0.954 -0.4975 -0.3925 -0.1993
 4625SOL    HW118498   3.547   0.495   0.992 -0.1513 -0.0920 -0.3550
 4625SOL    HW218499   3.397   0.506   0.971 -0.1144 -1.6855 -1.5813
 4625SOL     MW18500   3.478   0.538   0.961 -0.4041 -0.5195 -0.3961
 4626SOL     OW18501   4.229   2.500   2.895 -0.3961 -0.0927 -0.5420
 4626SOL    HW118502   4.256   2.589   2.871 -0.8885  0.5817  1.2010
 4626SOL    HW218503   4.295   2.443   2.854  0.4587  1.1348 -0.9399
 4626SOL     MW18504   4.241   2.504   2.887 -0.3497  0.1508 -0.3698
 4627SOL     OW18505   2.575   2.989   1.572 -0.0344 -0.3789 -0.1277
 4627SOL    HW118506   2.658   3.036   1.564  0.2096 -0.8535 -0.4450
 4627SOL    HW218507   2.601   2.898   1.589 -0.4947 -0.4396  0.2725
 4627SOL     MW18508   2.589   2.983   1.573 -0.0621 -0.4474 -0.1171
 4628SOL     OW18509   1.692   2.528   3.585 -0.0427 -0.3456 -0.6006
 4628SOL    HW118510   1.675   2.555   3.494 -0.3536 -0.4274 -0.5676
 4628SOL    HW218511   1.638   2.449   3.596 -0.9151  0.3168  0.0192
 4628SOL     MW18512   1.683   2.521   3.575 -0.1942 -0.2713 -0.5170
 4629SOL     OW18513   3.769   1.944   3.096  0.1804 -0.9636  0.1268
 4629SOL    HW118514   3.839   1.955   3.031 -0.0560  0.4237  0.0804
 4629SOL    HW218515   3.758   1.849   3.103  0.3763 -1.1643 -1.6940
 4629SOL     MW18516   3.776   1.933   3.088  0.1752 -0.8117 -0.1123
 4630SOL     OW18517   1.751   2.196   0.965 -0.0465 -0.0604  0.1144
 4630SOL    HW118518   1.757   2.122   0.905 -0.5959  0.9962 -1.2923
 4630SOL    HW218519   1.667   2.238   0.944 -0.8631 -0.3491  2.4707
 4630SOL     MW18520   1.741   2.192   0.955 -0.2213  0.0379  0.2360
 4631SOL     OW18521   5.328   4.396   0.710 -0.0272  0.3237 -0.0198
 4631SOL    HW118522   5.273   4.391   0.788  0.9552 -0.3493  0.6546
 4631SOL    HW218523   5.281   4.346   0.643 -0.0901 -0.5121  0.6377
 4631SOL     MW18524   5.315   4.389   0.711  0.0905  0.1306  0.1507
 4632SOL     OW18525   1.932   2.301   4.372 -0.2956  0.1141  0.0932
 4632SOL    HW118526   1.880   2.363   4.423  1.4331  0.8475  1.0538
 4632SOL    HW218527   1.909   2.215   4.407  0.1987  0.5381  1.5247
 4632SOL     MW18528   1.922   2.298   4.383 -0.0110  0.2623  0.3994
 4633SOL     OW18529   0.624   2.302   1.615  0.0740 -0.3363 -0.2045
 4633SOL    HW118530   0.555   2.236   1.611 -0.0923 -0.2889  1.4439
 4633SOL    HW218531   0.703   2.254   1.642 -0.0897  0.1311  1.1913
 4633SOL     MW18532   0.626   2.288   1.618  0.0317 -0.2704  0.1852
 4634SOL     OW18533   4.289   5.061   4.837  0.0743  0.2746 -0.6244
 4634SOL    HW118534   4.322   5.102   4.917 -3.5302  1.6960  0.2918
 4634SOL    HW218535   4.251   4.978   4.867 -0.6747  0.4844 -0.9920
 4634SOL     MW18536   4.289   5.055   4.851 -0.4830  0.4834 -0.5542
 4635SOL     OW18537   0.966   1.478   4.529  0.4492  0.2931  0.6398
 4635SOL    HW118538   0.937   1.408   4.470 -0.7050  0.0508  1.4590
 4635SOL    HW218539   1.056   1.455   4.552  0.5939 -0.0934 -0.3049
 4635SOL     MW18540   0.973   1.466   4.525  0.3200  0.2126  0.6237
 4636SOL     OW18541   1.529   0.346   4.523  0.0760 -0.8149  1.1087
 4636SOL    HW118542   1.476   0.276   4.486  0.2284 -0.5114  0.2984
 4636SOL    HW218543   1.568   0.308   4.602  0.3493 -1.7182  0.5504
 4636SOL     MW18544   1.527   0.332   4.528  0.1305 -0.8917  0.9335
 4637SOL     OW18545   1.202   2.089   4.832  0.1748 -0.0301  0.4557
 4637SOL    HW118546   1.166   2.026   4.894 -1.7972  0.2808 -0.2869
 4637SOL    HW218547   1.291   2.058   4.814  0.4503 -0.6488  2.6694
 4637SOL     MW18548   1.209   2.077   4.837 -0.0424 -0.0695  0.6440
 4638SOL     OW18549   4.110   4.766   3.579 -0.1822 -0.0209 -0.2226
 4638SOL    HW118550   4.073   4.854   3.588  1.9366  0.9616 -0.5144
 4638SOL    HW218551   4.109   4.750   3.485  2.0339  0.9443 -0.4631
 4638SOL     MW18552   4.105   4.775   3.568  0.3727  0.2284 -0.2908
 4639SOL     OW18553   4.546   1.382   0.394 -0.0493  0.1090  0.1207
 4639SOL    HW118554   4.575   1.291   0.404  0.5064  0.3833  1.0425
 4639SOL    HW218555   4.483   1.378   0.322 -0.7303 -1.1672  0.7359
 4639SOL     MW18556   4.542   1.370   0.386 -0.0653 -0.0193  0.3174
 4640SOL     OW18557   1.513   4.070   4.315  0.3548  0.2125 -0.8602
 4640SOL    HW118558   1.596   4.025   4.332 -0.0688  0.2470  1.7200
 4640SOL    HW218559   1.451   3.999   4.297 -0.1135 -0.3736  2.3396
 4640SOL     MW18560   1.516   4.055   4.315  0.2406  0.1419 -0.1203
 4641SOL     OW18561   2.361   1.563   1.486 -0.1084 -0.0351  0.5247
 4641SOL    HW118562   2.407   1.641   1.453 -0.5536  0.2244  0.5057
 4641SOL    HW218563   2.431   1.501   1.507  0.1898 -0.1926 -0.8460
 4641SOL     MW18564   2.376   1.565   1.484 -0.1272 -0.0220  0.3468
 4642SOL     OW18565   5.402   5.488   3.823  0.1801 -0.0333  0.3234
 4642SOL    HW118566   5.366   5.419   3.878 -0.4156  0.2638  0.3062
 4642SOL    HW218567   5.386   5.458   3.733  1.6559 -0.7876  0.2858
 4642SOL     MW18568   5.396   5.475   3.818  0.2927 -0.0918  0.3164
 4643SOL     OW18569   3.671   1.926   4.989 -0.0907 -0.2286  0.0709
 4643SOL    HW118570   3.714   1.998   5.035  0.0886 -0.8601  0.9156
 4643SOL    HW218571   3.740   1.861   4.976 -0.4656 -0.6580  0.1877
 4643SOL     MW18572   3.685   1.927   4.994 -0.1157 -0.3644  0.1940
 4644SOL     OW18573   3.887   0.191   4.217 -0.0810 -0.1637  0.8678
 4644SOL    HW118574   3.844   0.187   4.303 -1.4455 -0.6505  0.1860
 4644SOL    HW218575   3.841   0.260   4.170 -1.4827 -1.9772 -0.5581
 4644SOL     MW18576   3.876   0.199   4.222 -0.4351 -0.4582  0.5980
 4645SOL     OW18577   0.662   4.100   0.073  0.4929  0.5106 -0.0948
 4645SOL    HW118578   0.568   4.098   0.059  0.2226 -0.7940  1.6942
 4645SOL    HW218579   0.682   4.194   0.084 -0.8606  0.7060  1.0336
 4645SOL     MW18580   0.653   4.112   0.073  0.2850  0.3686  0.2787
 4646SOL     OW18581   3.289   4.575   2.099  0.5842 -0.2868  0.1797
 4646SOL    HW118582   3.267   4.509   2.164 -2.1765 -1.0646 -1.3747
 4646SOL    HW218583   3.205   4.613   2.074  1.5136 -0.0189 -2.9061
 4646SOL     MW18584   3.276   4.572   2.104  0.3497 -0.3520 -0.4143
 4647SOL     OW18585   1.225   2.800   4.661  0.2948 -0.2434 -0.5317
 4647SOL    HW118586   1.312   2.811   4.700 -0.5760  1.0762  1.2085
 4647SOL    HW218587   1.197   2.712   4.689  0.5329 -0.1341  0.0631
 4647SOL     MW18588   1.232   2.790   4.670  0.2138 -0.0605 -0.2328
 4648SOL     OW18589   2.958   0.609   3.227 -0.1733  0.2600 -0.0845
 4648SOL    HW118590   2.996   0.675   3.169 -2.3518  1.1985 -0.5688
 4648SOL    HW218591   2.970   0.527   3.180 -1.3068  0.9241 -1.6386
 4648SOL     MW18592   2.964   0.607   3.213 -0.5973  0.4651 -0.3454
 4649SOL     OW18593   1.685   5.275   5.371 -0.2955  0.2235  0.2838
 4649SOL    HW118594   1.696   5.311   5.283 -1.7841  0.5377  0.1974
 4649SOL    HW218595   1.591   5.257   5.378 -0.1160 -0.3331  1.6071
 4649SOL     MW18596   1.674   5.277   5.361 -0.4631  0.1925  0.4421
 4650SOL     OW18597   3.849   0.339   0.817 -0.0939  0.2012 -0.1568
 4650SOL    HW118598   3.881   0.358   0.730  0.9510  0.1299  0.2010
 4650SOL    HW218599   3.783   0.270   0.804  0.7436 -0.4971 -0.7945
 4650SOL     MW18600   3.844   0.332   0.804  0.1471  0.1027 -0.1926
 4651SOL     OW18601   2.890   2.607   1.541  0.0823  0.0557 -0.4396
 4651SOL    HW118602   2.878   2.512   1.532  0.5817  0.0576 -1.2136
 4651SOL    HW218603   2.934   2.617   1.625  0.7058 -0.4711 -0.6906
 4651SOL     MW18604   2.894   2.596   1.550  0.2261 -0.0115 -0.5708
 4652SOL     OW18605   3.062   0.404   2.713  0.0967  0.3332  0.0536
 4652SOL    HW118606   3.033   0.336   2.652 -1.1138 -1.1800  2.1797
 4652SOL    HW218607   2.986   0.462   2.722 -0.0837 -0.0252  0.8705
 4652SOL     MW18608   3.049   0.403   2.706 -0.0814  0.0936  0.4304
 4653SOL     OW18609   0.078   1.500   1.916 -0.6859 -0.6596 -0.3822
 4653SOL    HW118610   0.138   1.462   1.852  1.2339  1.5920 -0.0607
 4653SOL    HW218611   0.069   1.591   1.890 -1.6414 -0.2214  1.2885
 4653SOL     MW18612   0.084   1.507   1.905 -0.5624 -0.3153 -0.1272
 4654SOL     OW18613   4.630   1.669   5.159 -0.2673  0.3397 -0.2718
 4654SOL    HW118614   4.646   1.645   5.250 -1.4514  1.2956  0.2230
 4654SOL    HW218615   4.717   1.674   5.119  0.3182  0.5644  0.9843
 4654SOL     MW18616   4.643   1.667   5.166 -0.3440  0.4909 -0.0477
 4655SOL     OW18617   1.289   2.081   3.043  0.0890 -0.0304  0.0898
 4655SOL    HW118618   1.306   2.049   3.131 -0.9773 -0.2802  0.2229
 4655SOL    HW218619   1.292   2.176   3.051 -1.2604 -0.0141  0.6936
 4655SOL     MW18620   1.291   2.089   3.055 -0.2202 -0.0603  0.1841
 4656SOL     OW18621   5.028   4.518   1.992 -0.4578  0.3119 -0.0642
 4656SOL    HW118622   4.977   4.526   2.072 -1.6277  3.4555 -0.9698
 4656SOL    HW218623   5.109   4.566   2.010 -0.4431  0.4802 -0.5656
 4656SOL     MW18624   5.032   4.525   2.005 -0.6057  0.7358 -0.2443
 4657SOL     OW18625   0.217   2.469   4.851  0.5176  0.1926 -0.2493
 4657SOL    HW118626   0.130   2.443   4.880  0.3960  0.2038 -0.5983
 4657SOL    HW218627   0.270   2.468   4.930  0.4930 -1.0166 -0.2249
 4657SOL     MW18628   0.213   2.465   4.865  0.4989  0.0392 -0.2908
 4658SOL     OW18629   0.608   0.085   0.016 -0.2858  0.3723 -0.3700
 4658SOL    HW118630   0.700   0.065   0.029  0.0470 -0.1887 -3.0381
 4658SOL    HW218631   0.605   0.180   0.006 -0.4118  0.6969  2.0587
 4658SOL     MW18632   0.619   0.095   0.017 -0.2593  0.3420 -0.4006
 4659SOL     OW18633   5.194   5.227   2.980  0.3156 -0.0713  0.0482
 4659SOL    HW118634   5.277   5.180   2.978  0.4020  0.0877 -0.1434
 4659SOL    HW218635   5.212   5.309   2.933 -0.5507 -0.9860 -1.9943
 4659SOL     MW18636   5.207   5.232   2.974  0.2158 -0.1680 -0.2378
 4660SOL     OW18637   4.038   2.103   0.340  0.3991  0.3022  0.0110
 4660SOL    HW118638   4.015   2.167   0.273  0.8842 -0.2491 -0.6921
 4660SOL    HW218639   3.997   2.021   0.311  0.4248  0.1131  0.5000
 4660SOL     MW18640   4.030   2.101   0.328  0.4645  0.2074 -0.0164
 4661SOL     OW18641   0.195   4.820   0.439 -0.0591 -0.2927 -0.4094
 4661SOL    HW118642   0.249   4.859   0.369  0.0514 -1.8138 -1.2169
 4661SOL    HW218643   0.230   4.857   0.520  0.2116  1.0540 -1.1100
 4661SOL     MW18644   0.206   4.830   0.440 -0.0103 -0.3151 -0.6024
 4662SOL     OW18645   0.455   5.313   2.245 -0.1070 -0.0423 -0.0862
 4662SOL    HW118646   0.531   5.275   2.288  0.2888  0.7056 -0.1064
 4662SOL    HW218647   0.382   5.256   2.270  0.1613  0.2145  1.3779
 4662SOL     MW18648   0.455   5.301   2.254 -0.0220  0.0863  0.0987
 4663SOL     OW18649   1.162   4.914   4.289  0.3681  0.2490 -0.0154
 4663SOL    HW118650   1.121   4.844   4.238 -1.1140  1.2124 -0.2129
 4663SOL    HW218651   1.210   4.869   4.358 -1.0294 -0.9671  0.2184
 4663SOL     MW18652   1.163   4.900   4.291 -0.0005  0.2166 -0.0107
 4664SOL     OW18653   4.596   1.863   2.560  0.1695 -0.5185 -0.2268
 4664SOL    HW118654   4.652   1.920   2.507  0.2291  0.2207  0.6063
 4664SOL    HW218655   4.529   1.832   2.499 -0.4047  1.1757 -0.5113
 4664SOL     MW18656   4.595   1.867   2.545  0.1036 -0.2070 -0.1566
 4665SOL     OW18657   3.234   3.584   0.818 -0.4506 -0.2076 -0.0974
 4665SOL    HW118658   3.181   3.606   0.895  0.7431  0.2309  0.6344
 4665SOL    HW218659   3.219   3.490   0.805 -2.4280  0.1519 -0.7514
 4665SOL     MW18660   3.226   3.574   0.826 -0.5509 -0.1054 -0.0874
 4666SOL     OW18661   0.469   3.496   4.114 -0.0687  0.3113  0.2255
 4666SOL    HW118662   0.538   3.462   4.057  2.5201  2.6271  1.6794
 4666SOL    HW218663   0.431   3.569   4.064 -2.0623 -1.3418 -0.8303
 4666SOL     MW18664   0.473   3.501   4.100  0.0075  0.3962  0.2764
 4667SOL     OW18665   1.040   1.692   4.092 -0.4053 -0.0130  0.0312
 4667SOL    HW118666   1.128   1.715   4.123  0.3783 -2.5801 -0.0575
 4667SOL    HW218667   1.034   1.598   4.107 -2.4910 -0.1984 -1.6311
 4667SOL     MW18668   1.051   1.683   4.098 -0.5720 -0.3654 -0.1929
 4668SOL     OW18669   5.359   0.219   4.348 -0.0376 -0.0553 -0.5889
 4668SOL    HW118670   5.406   0.224   4.432  0.3803 -2.8131 -0.5670
 4668SOL    HW218671   5.392   0.139   4.307 -3.0242 -0.8763 -1.6443
 4668SOL     MW18672   5.370   0.209   4.354 -0.3664 -0.5135 -0.7212
 4669SOL     OW18673   2.910   1.625   3.026  0.3748  0.5237  0.3786
 4669SOL    HW118674   2.910   1.695   3.092 -1.1707 -0.2791  1.2925
 4669SOL    HW218675   2.959   1.554   3.067 -1.8382 -0.5341  1.3886
 4669SOL     MW18676   2.916   1.625   3.040 -0.1063  0.2855  0.6248
 4670SOL     OW18677   4.219   0.566   3.465 -0.2356  0.1338  0.0300
 4670SOL    HW118678   4.264   0.651   3.465 -0.3283  0.2038  1.3110
 4670SOL    HW218679   4.289   0.501   3.459  0.1467  0.2328  2.3072
 4670SOL     MW18680   4.233   0.569   3.464 -0.1985  0.1554  0.4855
 4671SOL     OW18681   1.706   5.355   2.862  0.5924  0.3126 -0.1767
 4671SOL    HW118682   1.673   5.302   2.934  1.8539  2.0360  1.7757
 4671SOL    HW218683   1.661   5.439   2.871  0.8992  0.6144 -1.2970
 4671SOL     MW18684   1.696   5.359   2.872  0.7932  0.5719 -0.0702
 4672SOL     OW18685   3.784   1.127   0.164 -0.2331 -0.5464 -0.0315
 4672SOL    HW118686   3.689   1.142   0.163 -0.1595  0.3466  1.5865
 4672SOL    HW218687   3.805   1.094   0.077 -2.0199 -0.6981 -0.4378
 4672SOL     MW18688   3.774   1.125   0.153 -0.4524 -0.4515  0.1236
 4673SOL     OW18689   0.195   1.349   0.577 -0.2933 -0.3454  0.3209
 4673SOL    HW118690   0.154   1.316   0.657 -0.2405 -1.4148 -0.0728
 4673SOL    HW218691   0.263   1.285   0.557 -0.0979  0.0750 -0.4129
 4673SOL     MW18692   0.199   1.337   0.585 -0.2615 -0.4285  0.1766
 4674SOL     OW18693   4.991   4.869   2.954  0.6841 -0.0986  0.1280
 4674SOL    HW118694   5.073   4.850   2.999  0.4954 -2.0624 -0.2718
 4674SOL    HW218695   4.985   4.802   2.885 -1.3718 -0.1702  0.3046
 4674SOL     MW18696   5.000   4.858   2.951  0.3967 -0.3592  0.0994
 4675SOL     OW18697   1.500   2.241   2.473  0.4812  0.4355  0.8091
 4675SOL    HW118698   1.423   2.294   2.493  0.9499  1.3964  0.1784
 4675SOL    HW218699   1.540   2.286   2.399 -0.3753 -2.0855 -1.3413
 4675SOL     MW18700   1.495   2.253   2.466  0.4315  0.2358  0.4531
 4676SOL     OW18701   1.855   3.100   0.822  0.0375  0.1175 -0.0593
 4676SOL    HW118702   1.898   3.091   0.906  0.5127 -0.2539 -0.3394
 4676SOL    HW218703   1.921   3.076   0.758 -0.5848 -0.4968 -0.4943
 4676SOL     MW18704   1.869   3.095   0.824  0.0187 -0.0087 -0.1509
 4677SOL     OW18705   4.152   2.810   0.488  0.2757 -0.1340  0.1747
 4677SOL    HW118706   4.228   2.756   0.509  0.4310  0.5386  1.4900
 4677SOL    HW218707   4.079   2.749   0.484  0.6839 -0.6248  0.1816
 4677SOL     MW18708   4.152   2.796   0.490  0.3478 -0.1107  0.3440
 4678SOL     OW18709   4.239   4.498   0.535  0.3027  0.0910  0.3023
 4678SOL    HW118710   4.325   4.499   0.493  0.3514  0.8028  0.4104
 4678SOL    HW218711   4.257   4.491   0.628  0.3533  2.3805  0.5293
 4678SOL     MW18712   4.252   4.498   0.541  0.3154  0.4752  0.3452
 4679SOL     OW18713   5.119   0.206   3.531  0.0226  0.2858  0.0137
 4679SOL    HW118714   5.134   0.279   3.590  0.1962 -0.7332  1.2797
 4679SOL    HW218715   5.207   0.176   3.507 -0.0268 -0.2573  0.4833
 4679SOL     MW18716   5.132   0.211   3.535  0.0385  0.0859  0.2359
 4680SOL     OW18717   3.391   5.256   2.845  0.4006  0.0647  0.3310
 4680SOL    HW118718   3.351   5.260   2.758 -1.2817  0.3299  1.0667
 4680SOL    HW218719   3.395   5.162   2.865  1.6202 -0.0545 -0.3573
 4680SOL     MW18720   3.386   5.244   2.836  0.3414  0.0834  0.3371
 4681SOL     OW18721   1.801   0.458   0.311  0.1498  0.8599 -0.1292
 4681SOL    HW118722   1.722   0.508   0.289 -0.1040  0.5752  0.1282
 4681SOL    HW218723   1.816   0.403   0.235 -0.6091  0.0262  0.3010
 4681SOL     MW18724   1.793   0.458   0.299  0.0202  0.7168 -0.0412
 4682SOL     OW18725   2.713   0.630   1.026  0.3317 -0.4268 -0.3424
 4682SOL    HW118726   2.776   0.698   1.002 -0.2113 -0.5002 -2.1983
 4682SOL    HW218727   2.628   0.674   1.020 -0.0397 -1.2621 -1.7697
 4682SOL     MW18728   2.710   0.644   1.022  0.2147 -0.5431 -0.7627
 4683SOL     OW18729   0.372   3.415   2.619  0.4457 -0.7346  0.4011
 4683SOL    HW118730   0.293   3.469   2.613 -0.4698 -2.0326  0.3211
 4683SOL    HW218731   0.417   3.448   2.697  1.2612  1.8003 -1.0071
 4683SOL     MW18732   0.367   3.426   2.628  0.4329 -0.5763  0.2106
 4684SOL     OW18733   0.912   5.337   1.849  0.6055 -0.0726  0.1604
 4684SOL    HW118734   0.925   5.361   1.757 -0.8692  1.0023  0.1977
 4684SOL    HW218735   0.982   5.384   1.895 -0.1457  1.4411 -0.1693
 4684SOL     MW18736   0.923   5.346   1.843  0.3206  0.2588  0.1230
 4685SOL     OW18737   2.832   3.073   0.683 -0.3393 -0.4272  0.4065
 4685SOL    HW118738   2.793   3.015   0.619 -1.1596  0.2487  0.2679
 4685SOL    HW218739   2.841   3.020   0.762  0.1672 -1.1059 -0.1083
 4685SOL     MW18740   2.828   3.059   0.685 -0.3794 -0.4276  0.3229
 4686SOL     OW18741   3.517   3.409   1.985  0.5358 -0.8590 -0.5316
 4686SOL    HW118742   3.496   3.382   2.075 -0.4450  2.1892  0.2507
 4686SOL    HW218743   3.437   3.449   1.953  1.3267 -0.5955 -2.2644
 4686SOL     MW18744   3.504   3.411   1.993  0.5115 -0.4351 -0.6533
 4687SOL     OW18745   1.095   2.426   1.081 -0.6272  0.3252  0.7142
 4687SOL    HW118746   1.097   2.345   1.132 -2.5040  0.2368  0.7186
 4687SOL    HW218747   1.092   2.397   0.989  0.9758  0.4605  0.5868
 4687SOL     MW18748   1.095   2.412   1.075 -0.6623  0.3312  0.6985
 4688SOL     OW18749   4.970   0.807   0.080  0.4802 -0.0723 -0.0430
 4688SOL    HW118750   5.001   0.780   0.166  0.2976 -1.8935 -0.5069
 4688SOL    HW218751   4.956   0.725   0.033 -0.2052  0.8624 -1.5368
 4688SOL     MW18752   4.972   0.793   0.085  0.3691 -0.1858 -0.2936
 4689SOL     OW18753   1.416   4.240   1.970 -0.1461  0.4358  0.1872
 4689SOL    HW118754   1.504   4.202   1.960 -0.2496  0.6648 -2.0519
 4689SOL    HW218755   1.357   4.169   1.946 -0.4419  1.0876 -1.0975
 4689SOL     MW18756   1.420   4.226   1.966 -0.1972  0.5486 -0.2639
 4690SOL     OW18757   1.037   3.221   1.078 -0.8015 -0.1505 -0.1153
 4690SOL    HW118758   1.112   3.223   1.019  0.2754 -1.4314  1.1217
 4690SOL    HW218759   0.996   3.307   1.069  0.3553  0.3003 -1.3986
 4690SOL     MW18760   1.041   3.232   1.070 -0.5155 -0.2567 -0.1213
 4691SOL     OW18761   4.797   2.032   3.909 -0.2881 -0.4998 -0.2716
 4691SOL    HW118762   4.792   2.113   3.960 -1.2990  0.3050 -1.5698
 4691SOL    HW218763   4.883   2.035   3.867  0.1401 -0.6789  0.5720
 4691SOL     MW18764   4.808   2.043   3.910 -0.3627 -0.4197 -0.3298
 4692SOL     OW18765   0.419   0.033   0.892 -0.6074  0.0452 -0.7675
 4692SOL    HW118766   0.365  -0.039   0.858 -1.7265  0.7406 -0.5031
 4692SOL    HW218767   0.373   0.112   0.864 -0.1735  0.6460  0.1894
 4692SOL     MW18768   0.406   0.034   0.884 -0.6951  0.2112 -0.6111
 4693SOL     OW18769   4.647   2.426   4.923  0.0949 -0.0532 -0.0098
 4693SOL    HW118770   4.602   2.448   5.005 -0.4363  0.6143 -0.4697
 4693SOL    HW218771   4.727   2.479   4.925  0.7593 -1.0554  0.6941
 4693SOL     MW18772   4.652   2.436   4.934  0.1119 -0.0960  0.0214
 4694SOL     OW18773   0.544   0.578   4.288 -0.2708 -0.3926  0.3597
 4694SOL    HW118774   0.510   0.645   4.347 -0.1968  1.0261 -1.1116
 4694SOL    HW218775   0.551   0.499   4.341 -1.9143  0.3481  1.7539
 4694SOL     MW18776   0.541   0.577   4.302 -0.4717 -0.1162  0.3499
 4695SOL     OW18777   2.196   0.193   2.461  0.0042 -0.2013  0.0745
 4695SOL    HW118778   2.235   0.109   2.485  2.4566  0.5839 -0.8920
 4695SOL    HW218779   2.112   0.169   2.422 -0.3668 -2.0159  1.8289
 4695SOL     MW18780   2.190   0.179   2.459  0.2707 -0.3330  0.1754
 4696SOL     OW18781   3.246   2.340   1.940  0.3244 -0.7407 -0.2586
 4696SOL    HW118782   3.340   2.329   1.957  0.2388 -0.5262  0.4000
 4696SOL    HW218783   3.240   2.351   1.845  0.8839 -1.5475 -0.4001
 4696SOL     MW18784   3.257   2.340   1.930  0.3851 -0.8165 -0.1924
 4697SOL     OW18785   5.157   0.890   3.219  0.0217  0.1045 -0.2295
 4697SOL    HW118786   5.225   0.885   3.152  1.5103  0.5976  1.1747
 4697SOL    HW218787   5.183   0.826   3.285 -1.3920 -0.3447 -0.0712
 4697SOL     MW18788   5.169   0.881   3.219  0.0313  0.1101 -0.0295
 4698SOL     OW18789   1.342   1.784   1.320 -0.2130  0.7664  0.1171
 4698SOL    HW118790   1.337   1.826   1.234 -1.8623  1.0028  0.3071
 4698SOL    HW218791   1.295   1.701   1.309  0.1767  0.4684  0.6198
 4698SOL     MW18792   1.335   1.779   1.308 -0.3742  0.7585  0.2058
 4699SOL     OW18793   2.872   0.079   3.793 -0.2293  0.4645 -0.1402
 4699SOL    HW118794   2.794   0.121   3.758  0.1918  0.2767 -1.3371
 4699SOL    HW218795   2.839   0.009   3.849 -0.9113  0.7740 -0.1471
 4699SOL     MW18796   2.858   0.075   3.796 -0.2627  0.4801 -0.2943
 4700SOL     OW18797   5.252   3.251   2.150 -0.3774  0.4684  0.5082
 4700SOL    HW118798   5.215   3.173   2.109 -1.2533  0.3850  1.4065
 4700SOL    HW218799   5.234   3.240   2.243  2.0376  0.3792  1.0258
 4700SOL     MW18800   5.245   3.240   2.157 -0.1804  0.4463  0.6895
 4701SOL     OW18801   4.660   2.105   4.580  0.2772 -0.1748 -0.2097
 4701SOL    HW118802   4.638   2.186   4.626  1.7476  0.2371 -0.1735
 4701SOL    HW218803   4.629   2.035   4.637 -0.5168  0.3511  0.0146
 4701SOL     MW18804   4.653   2.106   4.593  0.3638 -0.0548 -0.1763
 4702SOL     OW18805   0.950   4.711   4.716  0.3939  0.1911 -0.3189
 4702SOL    HW118806   0.884   4.763   4.671 -2.5131 -2.0389  1.0336
 4702SOL    HW218807   0.984   4.651   4.649 -1.1063 -0.5433 -0.4644
 4702SOL     MW18808   0.946   4.710   4.702 -0.1703 -0.1884 -0.1644
 4703SOL     OW18809   4.167   2.927   0.231  0.4716  0.2458  0.6871
 4703SOL    HW118810   4.235   2.994   0.231  0.0550  0.6706  1.0940
 4703SOL    HW218811   4.182   2.878   0.312  2.1201 -1.5611 -0.5837
 4703SOL     MW18812   4.178   2.929   0.241  0.6293  0.0689  0.5765
 4704SOL     OW18813   4.569   3.777   1.156  0.6123 -0.5052 -0.5321
 4704SOL    HW118814   4.545   3.720   1.230 -0.7359  1.4200  0.6205
 4704SOL    HW218815   4.661   3.798   1.171  0.0890  0.7706  1.3655
 4704SOL     MW18816   4.578   3.772   1.168  0.3727 -0.0954 -0.1417
 4705SOL     OW18817   1.995   0.236   2.658 -0.3359  0.8543 -0.2523
 4705SOL    HW118818   1.992   0.151   2.702 -1.5059  0.8211 -0.3614
 4705SOL    HW218819   2.078   0.235   2.610 -1.3077 -1.1513 -2.0604
 4705SOL     MW18820   2.005   0.225   2.658 -0.6101  0.5933 -0.4977
 4706SOL     OW18821   0.930   1.708   3.832 -0.0045  0.3021  0.0796
 4706SOL    HW118822   0.850   1.759   3.847 -0.0875  0.0837  0.3896
 4706SOL    HW218823   0.955   1.677   3.919 -1.4538 -2.4341 -0.3731
 4706SOL     MW18824   0.923   1.710   3.845 -0.2006 -0.0761  0.0613
 4707SOL     OW18825   3.853   2.365   4.100  0.9695  0.2553  0.3906
 4707SOL    HW118826   3.936   2.327   4.071  0.3784 -0.0081 -1.0973
 4707SOL    HW218827   3.875   2.453   4.130  1.5783  0.8640 -1.6812
 4707SOL     MW18828   3.866   2.371   4.100  0.9717  0.2995 -0.0651
 4708SOL     OW18829   1.446   3.161   0.160  0.4895 -0.2187  0.2254
 4708SOL    HW118830   1.459   3.245   0.117  1.5719 -1.6777 -2.5798
 4708SOL    HW218831   1.359   3.132   0.131  0.1264 -0.1179  1.1617
 4708SOL     MW18832   1.436   3.168   0.151  0.5816 -0.3926 -0.0139
 4709SOL     OW18833   1.221   0.853   4.467 -0.5871 -0.2785 -0.0740
 4709SOL    HW118834   1.314   0.855   4.486 -0.4769 -1.3975 -0.4045
 4709SOL    HW218835   1.185   0.928   4.514  0.4885  0.2356 -0.0425
 4709SOL     MW18836   1.228   0.863   4.476 -0.4353 -0.3559 -0.1123
 4710SOL     OW18837   4.539   2.789   3.132  0.6456  0.3968 -0.4103
 4710SOL    HW118838   4.447   2.761   3.135  0.3341  1.0750 -2.5447
 4710SOL    HW218839   4.538   2.877   3.169  0.4525  0.3992 -0.4195
 4710SOL     MW18840   4.527   2.796   3.137  0.5810  0.4839 -0.6847
 4711SOL     OW18841   1.502   1.048   2.919  0.0107 -0.0917  0.0672
 4711SOL    HW118842   1.460   1.055   2.833 -1.3861  0.1366  0.7278
 4711SOL    HW218843   1.508   0.954   2.936 -1.1553 -0.1262  0.3668
 4711SOL     MW18844   1.497   1.037   2.911 -0.3173 -0.0669  0.1901
 4712SOL     OW18845   3.876   0.816   3.582 -0.3513 -0.2098  0.1985
 4712SOL    HW118846   3.810   0.885   3.571 -0.0384 -0.0042 -0.4480
 4712SOL    HW218847   3.899   0.820   3.674  0.1184  0.9750  0.0490
 4712SOL     MW18848   3.870   0.825   3.592 -0.2511 -0.0318  0.0966
 4713SOL     OW18849   3.315   4.338   4.018 -0.0337  0.0983  0.1058
 4713SOL    HW118850   3.361   4.387   3.950  1.1724  0.5352  1.1945
 4713SOL    HW218851   3.282   4.405   4.078  0.1928 -0.3266  0.7235
 4713SOL     MW18852   3.317   4.353   4.017  0.1497  0.0999  0.3243
 4714SOL     OW18853   2.008   3.459   0.811 -0.3418 -0.3175 -0.4736
 4714SOL    HW118854   2.051   3.402   0.875 -2.0310 -1.2333 -0.0924
 4714SOL    HW218855   2.037   3.547   0.834 -0.2698 -0.7089  1.0567
 4714SOL     MW18856   2.017   3.463   0.822 -0.5488 -0.4848 -0.2289
 4715SOL     OW18857   1.596   4.326   3.813  0.0227  0.0681 -0.2322
 4715SOL    HW118858   1.511   4.314   3.856  0.2218  0.9402  0.4180
 4715SOL    HW218859   1.639   4.395   3.863  0.7883  0.2037 -1.0563
 4715SOL     MW18860   1.590   4.333   3.825  0.1462  0.1971 -0.2545
 4716SOL     OW18861   4.907   4.842   4.410  0.4598  0.2058  0.4775
 4716SOL    HW118862   4.985   4.826   4.357 -0.0085  1.3852 -0.6131
 4716SOL    HW218863   4.851   4.896   4.355  0.3053  2.2220  2.4224
 4716SOL     MW18864   4.910   4.847   4.396  0.3801  0.6148  0.5869
 4717SOL     OW18865   2.501   3.612   2.365  0.0412  0.3716 -0.0679
 4717SOL    HW118866   2.567   3.572   2.308 -0.1320 -0.5005  0.3403
 4717SOL    HW218867   2.550   3.644   2.440 -0.1980 -2.0935  1.2335
 4717SOL     MW18868   2.516   3.611   2.367 -0.0116 -0.0556  0.1510
 4718SOL     OW18869   3.408   1.910   2.650  0.5980 -0.0764  1.0721
 4718SOL    HW118870   3.373   1.837   2.702 -1.8716 -0.0510 -0.3827
 4718SOL    HW218871   3.500   1.916   2.676  0.4603 -2.5820  2.4945
 4718SOL     MW18872   3.415   1.902   2.660  0.2642 -0.3939  1.0680
 4719SOL     OW18873   3.115   2.038   4.164  0.3569 -0.7005 -0.6697
 4719SOL    HW118874   3.180   2.053   4.233 -1.5417  1.0196  0.8505
 4719SOL    HW218875   3.056   2.112   4.170 -2.4695 -2.7661 -1.1787
 4719SOL     MW18876   3.116   2.049   4.173 -0.2479 -0.7447 -0.5403
 4720SOL     OW18877   2.795   0.001   0.743 -0.4189  0.0455 -0.3178
 4720SOL    HW118878   2.816   0.057   0.668 -1.4347 -1.4624 -1.8173
 4720SOL    HW218879   2.703   0.018   0.761 -0.3449 -0.0600  0.1808
 4720SOL     MW18880   2.786   0.010   0.736 -0.5395 -0.1610 -0.4459
 4721SOL     OW18881   1.929   3.373   2.614 -0.2880  0.5749  0.3718
 4721SOL    HW118882   1.836   3.371   2.590 -0.0283 -0.1261 -0.6544
 4721SOL    HW218883   1.958   3.460   2.589 -0.5148  0.5575  0.0266
 4721SOL     MW18884   1.921   3.384   2.608 -0.2838  0.4829  0.1962
 4722SOL     OW18885   0.273   2.154   4.520 -0.0881  0.6274 -0.1076
 4722SOL    HW118886   0.269   2.095   4.445  0.1456  0.3647  0.0863
 4722SOL    HW218887   0.197   2.132   4.573 -0.0734  0.5910 -0.1019
 4722SOL     MW18888   0.263   2.144   4.517 -0.0563  0.5891 -0.0821
 4723SOL     OW18889   0.609   1.869   3.186 -0.1064  0.1064  0.0492
 4723SOL    HW118890   0.576   1.796   3.133 -1.3673 -0.5085  1.5996
 4723SOL    HW218891   0.530   1.915   3.214  0.5959  1.0395  0.5424
 4723SOL     MW18892   0.595   1.865   3.183 -0.1779  0.1471  0.3108
 4724SOL     OW18893   3.153   0.371   3.394  0.2557 -0.0102  0.3241
 4724SOL    HW118894   3.059   0.360   3.383  0.5614 -2.4535 -0.3821
 4724SOL    HW218895   3.163   0.405   3.483 -1.3594  3.0107 -0.4938
 4724SOL     MW18896   3.143   0.374   3.404  0.0880  0.0637  0.1290
 4725SOL     OW18897   2.224   1.325   5.382  0.2791  0.2688 -0.2850
 4725SOL    HW118898   2.166   1.401   5.384  0.1051  0.1120  1.0197
 4725SOL    HW218899   2.170   1.255   5.344 -0.0191  0.4291 -0.1600
 4725SOL     MW18900   2.210   1.325   5.377  0.2186  0.2692 -0.1020
 4726SOL     OW18901   1.476   1.713   3.441  0.6029 -0.1902 -0.2383
 4726SOL    HW118902   1.520   1.689   3.523  1.7193  1.4612 -0.3155
 4726SOL    HW218903   1.399   1.763   3.469 -0.3598 -1.6496 -0.1605
 4726SOL     MW18904   1.471   1.716   3.455  0.6225 -0.1656 -0.2382
 4727SOL     OW18905   2.248   5.420   3.784  0.0434  0.0539 -0.3450
 4727SOL    HW118906   2.218   5.396   3.697  0.1751 -1.0312 -0.1041
 4727SOL    HW218907   2.343   5.408   3.782  0.0084 -0.3244  0.0477
 4727SOL     MW18908   2.256   5.416   3.773  0.0558 -0.1334 -0.2639
 4728SOL     OW18909   3.799   3.783   4.125 -0.0660  0.1120  0.5556
 4728SOL    HW118910   3.850   3.815   4.200  0.4436 -0.0559  0.2826
 4728SOL    HW218911   3.708   3.795   4.152  0.1025  1.6126  0.5430
 4728SOL     MW18912   3.794   3.789   4.138  0.0208  0.2826  0.5191
 4729SOL     OW18913   1.033   2.558   2.245  0.4397 -0.0742 -0.0483
 4729SOL    HW118914   1.031   2.603   2.161 -1.0824 -1.0501 -0.5707
 4729SOL    HW218915   1.069   2.471   2.225  1.4417  0.1739  0.5863
 4729SOL     MW18916   1.038   2.553   2.232  0.3731 -0.1673 -0.0340
 4730SOL     OW18917   0.601   0.573   2.173  0.3696 -0.3824 -0.1225
 4730SOL    HW118918   0.639   0.579   2.261 -1.4624  0.4582  0.6710
 4730SOL    HW218919   0.522   0.627   2.177 -1.7918 -3.2007 -1.1597
 4730SOL     MW18920   0.595   0.580   2.185 -0.1416 -0.6356 -0.1537
 4731SOL     OW18921   1.099   4.813   2.880  0.3407 -0.9295 -0.3410
 4731SOL    HW118922   1.008   4.791   2.864  0.1873 -0.6090  0.0634
 4731SOL    HW218923   1.097   4.865   2.961  0.6851  0.5559 -1.2488
 4731SOL     MW18924   1.087   4.817   2.888  0.3652 -0.6983 -0.4054
 4732SOL     OW18925   1.637   5.068   0.360 -0.2155 -0.2010 -0.4500
 4732SOL    HW118926   1.716   5.103   0.320  0.7903 -0.1219  1.4703
 4732SOL    HW218927   1.573   5.139   0.353  0.4186  0.3714 -0.5479
 4732SOL     MW18928   1.639   5.081   0.354 -0.0056 -0.1176 -0.2167
 4733SOL     OW18929   3.813   0.159   0.544 -0.2054  0.0001  0.1122
 4733SOL    HW118930   3.747   0.212   0.499 -2.5215 -1.5922  1.3683
 4733SOL    HW218931   3.821   0.080   0.491  2.4276  1.0221 -1.1830
 4733SOL     MW18932   3.805   0.155   0.532 -0.1648 -0.0729  0.1072
 4734SOL     OW18933   1.291   3.020   1.315  0.4808 -0.2335 -0.1498
 4734SOL    HW118934   1.209   3.069   1.319  1.3332  1.2094  1.3628
 4734SOL    HW218935   1.355   3.082   1.279  0.9859 -1.2462 -1.0773
 4734SOL     MW18936   1.289   3.034   1.311  0.6546 -0.1784 -0.0749
 4735SOL     OW18937   3.444   1.904   1.381 -0.5150 -0.1528 -0.1553
 4735SOL    HW118938   3.406   1.953   1.308  1.2616  1.5381 -0.0217
 4735SOL    HW218939   3.457   1.816   1.346 -1.8218 -0.0105 -1.0930
 4735SOL     MW18940   3.440   1.899   1.367 -0.4548  0.0819 -0.2582
 4736SOL     OW18941   1.119   3.411   4.605  0.0987  0.0265  0.0925
 4736SOL    HW118942   1.124   3.462   4.686 -0.9460  1.5728 -0.7677
 4736SOL    HW218943   1.026   3.393   4.594  0.4176 -2.2161  0.3875
 4736SOL     MW18944   1.108   3.415   4.614  0.0058 -0.0626  0.0201
 4737SOL     OW18945   2.631   1.917   0.081 -0.0060  0.3492 -0.0589
 4737SOL    HW118946   2.595   1.861   0.149 -2.1024 -0.4061 -1.6540
 4737SOL    HW218947   2.640   1.860   0.005 -0.2880  1.6920 -1.1550
 4737SOL     MW18948   2.627   1.903   0.080 -0.3105  0.4244 -0.4034
 4738SOL     OW18949   3.744   1.785   4.229 -0.2081 -0.2534 -0.6845
 4738SOL    HW118950   3.762   1.707   4.176 -0.7355 -0.3513 -0.7261
 4738SOL    HW218951   3.754   1.754   4.319 -1.2286 -0.5930 -0.6726
 4738SOL     MW18952   3.748   1.771   4.234 -0.4063 -0.3094 -0.6883
 4739SOL     OW18953   2.635   0.324   5.338  0.4287 -0.3774 -0.2700
 4739SOL    HW118954   2.593   0.243   5.307  1.6424 -1.2193  0.1838
 4739SOL    HW218955   2.588   0.347   5.417 -0.4051 -0.2179 -0.8047
 4739SOL     MW18956   2.624   0.316   5.344  0.4773 -0.4647 -0.2804
 4740SOL     OW18957   3.096   3.090   0.651  0.2229 -0.4913 -0.2396
 4740SOL    HW118958   3.118   3.124   0.565  1.3838  0.8498  0.5580
 4740SOL    HW218959   3.001   3.100   0.657  0.3376  1.0100 -0.7027
 4740SOL     MW18960   3.086   3.095   0.641  0.3862 -0.1274 -0.1968
 4741SOL     OW18961   1.887   0.722   4.785 -0.1649  0.0010 -0.2574
 4741SOL    HW118962   1.908   0.631   4.764 -0.1171  0.3963 -2.1003
 4741SOL    HW218963   1.792   0.728   4.776 -0.3967 -0.2448  1.6176
 4741SOL     MW18964   1.878   0.711   4.782 -0.1885  0.0201 -0.2533
 4742SOL     OW18965   0.561   3.043   3.623 -0.1097 -0.0137 -0.6373
 4742SOL    HW118966   0.638   3.030   3.678  0.1315 -0.7166 -1.1293
 4742SOL    HW218967   0.593   3.098   3.551  0.2216 -1.2235 -1.4334
 4742SOL     MW18968   0.575   3.049   3.621 -0.0365 -0.2586 -0.8022
 4743SOL     OW18969   3.670   2.451   3.872  0.0250 -0.3661 -0.1217
 4743SOL    HW118970   3.709   2.421   3.954  0.6163  2.0921  0.5979
 4743SOL    HW218971   3.625   2.375   3.837 -0.3243 -1.4947  2.5314
 4743SOL     MW18972   3.670   2.438   3.878  0.0559 -0.1959  0.3101
 4744SOL     OW18973   1.461   3.849   4.720 -0.5749  0.8054  0.4840
 4744SOL    HW118974   1.501   3.874   4.804  0.2659  0.0956  0.3129
 4744SOL    HW218975   1.502   3.907   4.656 -0.4067  0.6166  0.4190
 4744SOL     MW18976   1.472   3.859   4.723 -0.4458  0.6904  0.4537
 4745SOL     OW18977   1.268   4.107   0.227 -0.4656 -0.4994 -0.4298
 4745SOL    HW118978   1.319   4.156   0.162 -0.5566 -0.1256 -0.2230
 4745SOL    HW218979   1.258   4.167   0.300 -1.8079 -0.2961 -0.7491
 4745SOL     MW18980   1.273   4.121   0.228 -0.6491 -0.4256 -0.4442
 4746SOL     OW18981   0.566   5.124   5.225 -0.3249  0.6074  0.0011
 4746SOL    HW118982   0.660   5.114   5.207  0.0836  2.8876  0.6039
 4746SOL    HW218983   0.523   5.085   5.149  1.1024 -0.1007 -0.4904
 4746SOL     MW18984   0.573   5.118   5.213 -0.0899  0.8087  0.0153
 4747SOL     OW18985   2.066   0.032   5.098 -0.1336 -0.0083 -0.1578
 4747SOL    HW118986   2.105  -0.004   5.178  2.1683  0.9244 -0.7621
 4747SOL    HW218987   2.085  -0.034   5.031  0.0444  0.2676 -0.3803
 4747SOL     MW18988   2.074   0.019   5.099  0.1838  0.1464 -0.2636
 4748SOL     OW18989   3.603   2.989   4.212  0.4908 -0.5990 -0.0040
 4748SOL    HW118990   3.693   3.014   4.190  1.1202 -1.1158  1.7887
 4748SOL    HW218991   3.587   2.910   4.160  0.8696 -0.2245 -0.7169
 4748SOL     MW18992   3.613   2.982   4.202  0.6198 -0.6172  0.1342
 4749SOL     OW18993   3.737   0.236   1.357 -0.1357  0.5752 -0.4033
 4749SOL    HW118994   3.729   0.146   1.324  0.9037  0.8114 -1.3451
 4749SOL    HW218995   3.823   0.239   1.398  0.8309  1.7150 -2.3513
 4749SOL     MW18996   3.747   0.224   1.358  0.1211  0.7513 -0.7732
 4750SOL     OW18997   5.158   1.218   4.518 -0.3190 -0.4813  0.3056
 4750SOL    HW118998   5.226   1.253   4.576  0.4126 -0.6391 -0.4432
 4750SOL    HW218999   5.185   1.127   4.502  0.4286  0.0337 -1.6273
 4750SOL     MW19000   5.170   1.211   4.523 -0.1296 -0.4356 -0.0377
 4751SOL     OW19001   1.517   4.736   2.524  0.1677  0.3296 -0.2644
 4751SOL    HW119002   1.522   4.831   2.516  3.6901  0.2732 -0.3786
 4751SOL    HW219003   1.423   4.716   2.524 -0.6721  3.7598 -0.2717
 4751SOL     MW19004   1.505   4.745   2.523  0.5111  0.7615 -0.2799
 4752SOL     OW19005   0.432   2.066   1.576 -0.2334  0.0779 -0.1185
 4752SOL    HW119006   0.416   2.054   1.483  0.2629  1.2579 -0.3667
 4752SOL    HW219007   0.410   1.981   1.615  3.6579 -1.9823 -1.8341
 4752SOL     MW19008   0.427   2.054   1.569  0.3283 -0.0348 -0.3699
 4753SOL     OW19009   2.880   5.385   2.531  0.2423  0.1813 -0.0269
 4753SOL    HW119010   2.896   5.297   2.497 -1.9323  0.2116 -1.2991
 4753SOL    HW219011   2.806   5.374   2.591 -0.6315  1.2406 -0.8616
 4753SOL     MW19012   2.872   5.372   2.535 -0.1480  0.3208 -0.2966
 4754SOL     OW19013   0.100   3.057   1.704 -0.1796 -0.0279  0.0984
 4754SOL    HW119014   0.102   2.968   1.668  1.6358  0.2498 -0.6028
 4754SOL    HW219015   0.161   3.054   1.778  0.4783  0.7964 -0.3973
 4754SOL     MW19016   0.108   3.045   1.709  0.1370  0.1132 -0.0548
 4755SOL     OW19017   4.878   5.199   1.020 -0.4868  0.3538  0.0348
 4755SOL    HW119018   4.789   5.198   1.056  0.0579 -0.6177  1.4867
 4755SOL    HW219019   4.910   5.110   1.034  0.8777  0.8130 -0.0244
 4755SOL     MW19020   4.871   5.188   1.027 -0.2424  0.2883  0.2131
 4756SOL     OW19021   5.420   1.356   3.403 -0.1045 -1.0211 -0.4294
 4756SOL    HW119022   5.353   1.328   3.340  0.5604  0.1381 -1.7016
 4756SOL    HW219023   5.400   1.448   3.419  0.4692 -0.9904  0.1191
 4756SOL     MW19024   5.409   1.364   3.397  0.0540 -0.8688 -0.5221
 4757SOL     OW19025   4.774   2.444   0.606 -0.3304 -0.3030  0.2347
 4757SOL    HW119026   4.805   2.507   0.541  0.0216 -0.3237  0.3792
 4757SOL    HW219027   4.706   2.490   0.654  0.3868  0.2071  0.7829
 4757SOL     MW19028   4.769   2.458   0.604 -0.1935 -0.2404  0.3234
 4758SOL     OW19029   0.491   3.937   2.957  0.6501  0.7747 -0.4434
 4758SOL    HW119030   0.530   3.855   2.988 -1.7338 -0.6649 -0.9884
 4758SOL    HW219031   0.476   3.922   2.864 -1.9114  0.8817 -0.1063
 4758SOL     MW19032   0.494   3.925   2.949  0.0171  0.6041 -0.4700
 4759SOL     OW19033   1.437   4.169   3.033  0.0676  0.4043  0.2768
 4759SOL    HW119034   1.495   4.151   2.959  0.2299  0.3127  0.4228
 4759SOL    HW219035   1.425   4.084   3.075  1.1489  0.6791  1.1957
 4759SOL     MW19036   1.443   4.156   3.029  0.2268  0.4277  0.4131
 4760SOL     OW19037   5.061   2.531   0.714  0.7763  0.1147  0.5473
 4760SOL    HW119038   5.095   2.483   0.790  0.0312 -2.1163 -0.4508
 4760SOL    HW219039   4.991   2.475   0.680  0.6665  1.3680 -1.4099
 4760SOL     MW19040   5.057   2.517   0.720  0.6668 -0.0105  0.1690
 4761SOL     OW19041   3.355   3.405   0.235  0.3366 -0.1196  0.4166
 4761SOL    HW119042   3.378   3.495   0.257  1.8805 -0.5159  0.5202
 4761SOL    HW219043   3.430   3.372   0.185 -1.2627 -0.5696 -1.8804
 4761SOL     MW19044   3.367   3.412   0.231  0.3295 -0.2279  0.1358
 4762SOL     OW19045   3.330   0.708   0.726  0.1224  0.4225  0.0418
 4762SOL    HW119046   3.255   0.667   0.769  1.1077 -0.5906  0.8285
 4762SOL    HW219047   3.385   0.635   0.697  0.9651  1.1540 -0.2487
 4762SOL     MW19048   3.327   0.694   0.727  0.3564  0.3865  0.1054
 4763SOL     OW19049   1.692   1.729   3.231 -0.1630  0.6784 -0.1297
 4763SOL    HW119050   1.712   1.823   3.233 -0.8725  0.8278  0.6350
 4763SOL    HW219051   1.622   1.719   3.295 -0.9787 -0.1748 -1.1284
 4763SOL     MW19052   1.686   1.740   3.240 -0.3583  0.5883 -0.1596
 4764SOL     OW19053   2.242   3.513   4.135  0.1370  0.4500 -0.1210
 4764SOL    HW119054   2.294   3.454   4.080  0.2732  0.6241 -0.1780
 4764SOL    HW219055   2.295   3.591   4.143  0.0910  0.4465  0.2139
 4764SOL     MW19056   2.255   3.515   4.129  0.1485  0.4718 -0.0854
 4765SOL     OW19057   3.498   1.182   0.196 -0.2231 -0.5593  0.2723
 4765SOL    HW119058   3.411   1.222   0.195  0.2872  0.5874  0.0871
 4765SOL    HW219059   3.496   1.121   0.270 -1.2422 -0.7128  0.1347
 4765SOL     MW19060   3.487   1.179   0.205 -0.2882 -0.4321  0.2309
 4766SOL     OW19061   1.410   3.415   0.958  0.4863  0.3177 -0.2807
 4766SOL    HW119062   1.367   3.481   1.013  1.3486  1.4352 -0.9159
 4766SOL    HW219063   1.366   3.333   0.981  1.2557  0.5988  2.5541
 4766SOL     MW19064   1.399   3.413   0.968  0.6952  0.4967  0.0009
 4767SOL     OW19065   0.341   3.655   1.434  0.7194 -0.3495 -0.7646
 4767SOL    HW119066   0.308   3.573   1.397 -1.2742  0.8204 -1.7660
 4767SOL    HW219067   0.262   3.703   1.459  1.8164 -0.6943  4.5056
 4767SOL     MW19068   0.327   3.651   1.433  0.6046 -0.2439 -0.2182
 4768SOL     OW19069   5.284   0.123   3.177 -0.3509  0.3082  0.3903
 4768SOL    HW119070   5.362   0.126   3.121 -0.1648 -0.8057  0.5613
 4768SOL    HW219071   5.221   0.180   3.133 -0.5181 -1.1830 -1.4376
 4768SOL     MW19072   5.286   0.131   3.164 -0.3485 -0.0253  0.1782
 4769SOL     OW19073   0.278   3.150   0.263 -0.0335  0.1506  0.4631
 4769SOL    HW119074   0.198   3.123   0.307 -0.6497  0.3908 -0.4741
 4769SOL    HW219075   0.314   3.219   0.319 -0.7214  0.3533  0.6653
 4769SOL     MW19076   0.272   3.156   0.276 -0.2004  0.2073  0.3690
 4770SOL     OW19077   1.929   3.159   3.949  0.2067 -0.1919  0.0632
 4770SOL    HW119078   1.890   3.242   3.978  1.7047  0.9577 -0.9887
 4770SOL    HW219079   2.006   3.186   3.898  0.6617 -2.2476 -0.4298
 4770SOL     MW19080   1.934   3.173   3.946  0.4567 -0.3079 -0.1345
 4771SOL     OW19081   0.013   3.399   3.175 -0.3735  0.6041 -0.2651
 4771SOL    HW119082   0.029   3.451   3.097  1.7214  0.0343 -0.2846
 4771SOL    HW219083   0.020   3.460   3.248  1.6071  0.4944 -0.3168
 4771SOL     MW19084   0.016   3.413   3.175  0.1482  0.5171 -0.2742
 4772SOL     OW19085   5.093   1.201   1.265  0.3199  0.1510  0.6928
 4772SOL    HW119086   5.120   1.292   1.254  0.2435  0.3555  2.0257
 4772SOL    HW219087   5.134   1.174   1.347 -0.3512 -0.7468  0.7448
 4772SOL     MW19088   5.101   1.209   1.275  0.2242  0.0622  0.8701
 4773SOL     OW19089   1.900   3.308   1.574  0.1296 -0.2255  0.1250
 4773SOL    HW119090   1.934   3.354   1.650 -2.1292  2.9529 -0.5795
 4773SOL    HW219091   1.818   3.270   1.603  0.2207 -0.7030 -0.2306
 4773SOL     MW19092   1.894   3.309   1.587 -0.1479  0.1203 -0.0107
 4774SOL     OW19093   4.317   2.156   0.780  0.3350 -0.4220 -0.1168
 4774SOL    HW119094   4.257   2.165   0.854 -1.7636 -1.4160 -1.6047
 4774SOL    HW219095   4.274   2.203   0.708  0.9639 -1.7773 -1.4313
 4774SOL     MW19096   4.304   2.163   0.780  0.1469 -0.7227 -0.4755
 4775SOL     OW19097   2.020   2.428   3.036  0.3934 -0.2815  0.4571
 4775SOL    HW119098   1.971   2.346   3.041  1.2513 -0.7763  0.9638
 4775SOL    HW219099   1.991   2.479   3.112 -0.5094  0.1136 -0.1319
 4775SOL     MW19100   2.010   2.424   3.047  0.3877 -0.2943  0.4465
 4776SOL     OW19101   2.916   1.917   4.288  0.0421 -1.2784 -0.7716
 4776SOL    HW119102   2.841   1.904   4.230 -0.3836 -0.8897 -0.3244
 4776SOL    HW219103   2.986   1.949   4.231 -1.4009  2.6659 -0.6551
 4776SOL     MW19104   2.916   1.919   4.274 -0.1971 -0.7237 -0.6995
 4777SOL     OW19105   2.024   4.639   0.268  0.3071 -0.2213 -0.0157
 4777SOL    HW119106   2.102   4.690   0.246  1.4796 -1.7436  0.4439
 4777SOL    HW219107   2.023   4.567   0.205 -1.6545  0.6106 -1.0410
 4777SOL     MW19108   2.034   4.637   0.257  0.2060 -0.3097 -0.0881
 4778SOL     OW19109   1.988   2.644   2.387  0.3696  0.3031  0.3888
 4778SOL    HW119110   1.927   2.681   2.452 -1.6000 -0.8313 -0.7035
 4778SOL    HW219111   2.060   2.610   2.440 -2.0856 -2.4461  2.3951
 4778SOL     MW19112   1.989   2.644   2.402 -0.1968 -0.1940  0.5058
 4779SOL     OW19113   1.739   2.461   2.585 -0.3057 -0.3186 -0.1331
 4779SOL    HW119114   1.823   2.419   2.601 -0.3140 -0.5721 -0.7297
 4779SOL    HW219115   1.675   2.402   2.625 -0.1572  0.2597  1.0080
 4779SOL     MW19116   1.741   2.448   2.593 -0.2877 -0.2770 -0.0634
 4780SOL     OW19117   2.921   3.392   5.229  0.4951  0.1713  0.0818
 4780SOL    HW119118   2.845   3.443   5.259 -0.2012 -0.1665 -1.0553
 4780SOL    HW219119   2.938   3.331   5.301 -0.0693  0.5109  0.5176
 4780SOL     MW19120   2.913   3.391   5.242  0.3337  0.1715 -0.0079
 4781SOL     OW19121   4.799   3.244   4.238  0.3147  0.0574 -0.5141
 4781SOL    HW119122   4.865   3.179   4.217  0.4380  0.4859 -1.5175
 4781SOL    HW219123   4.749   3.206   4.310 -0.2486 -1.5945 -1.7155
 4781SOL     MW19124   4.801   3.231   4.245  0.2584 -0.0992 -0.7963
 4782SOL     OW19125   3.017   0.215   5.202  0.2999  0.0617 -0.2875
 4782SOL    HW119126   3.044   0.284   5.142 -0.2152  0.5725  0.0580
 4782SOL    HW219127   2.948   0.168   5.156 -1.3534  1.5513  0.5507
 4782SOL     MW19128   3.012   0.218   5.189  0.0223  0.3178 -0.1360
 4783SOL     OW19129   2.699   4.982   5.282  0.1497  0.2190  0.3928
 4783SOL    HW119130   2.627   5.000   5.342  0.6908  1.9942  0.5654
 4783SOL    HW219131   2.732   4.896   5.309 -1.7983 -0.6003  0.3672
 4783SOL     MW19132   2.694   4.973   5.293 -0.0304  0.3414  0.4116
 4784SOL     OW19133   3.682   3.446   4.455  0.2485 -0.3614  0.0725
 4784SOL    HW119134   3.587   3.439   4.464 -0.2281  0.7358 -2.9198
 4784SOL    HW219135   3.706   3.522   4.509 -0.4227 -1.1154  1.4621
 4784SOL     MW19136   3.673   3.455   4.463  0.1016 -0.3175 -0.1327
 4785SOL     OW19137   5.272   4.240   2.354 -0.0935  0.2195  0.0019
 4785SOL    HW119138   5.278   4.285   2.438  0.4267  0.4479 -0.1598
 4785SOL    HW219139   5.353   4.190   2.346  0.2151  0.8200 -0.7218
 4785SOL     MW19140   5.283   4.239   2.364  0.0126  0.3256 -0.1114
 4786SOL     OW19141   0.462   0.655   3.106  0.4879  0.3964  0.0032
 4786SOL    HW119142   0.378   0.621   3.137  0.4313  1.4758  1.1373
 4786SOL    HW219143   0.493   0.590   3.042 -1.4359  0.2297 -0.8261
 4786SOL     MW19144   0.455   0.642   3.102  0.2344  0.5133  0.0423
 4787SOL     OW19145   0.364   2.492   2.503 -0.2660 -0.1378  0.2678
 4787SOL    HW119146   0.392   2.446   2.424  0.8598  1.2201 -0.1823
 4787SOL    HW219147   0.380   2.430   2.574  2.2216 -0.1351 -0.1983
 4787SOL     MW19148   0.370   2.478   2.502  0.1966  0.0364  0.1505
 4788SOL     OW19149   1.318   4.863   1.063  0.3392 -0.2926 -0.1395
 4788SOL    HW119150   1.233   4.859   1.108 -0.2296 -0.8159 -1.2128
 4788SOL    HW219151   1.296   4.888   0.973  1.5293  1.5437  0.0269
 4788SOL     MW19152   1.304   4.866   1.057  0.4188 -0.1245 -0.2556
 4789SOL     OW19153   4.954   0.900   4.596  0.1645 -0.1382 -0.0093
 4789SOL    HW119154   4.916   0.814   4.577 -0.8745  0.3511 -0.1649
 4789SOL    HW219155   4.906   0.961   4.541  1.3602  0.4759 -0.4112
 4789SOL     MW19156   4.943   0.897   4.587  0.1846  0.0031 -0.0806
 4790SOL     OW19157   3.110   5.348   1.431 -0.2691  0.0022  0.2885
 4790SOL    HW119158   3.070   5.267   1.462  0.0702  0.1213  1.0600
 4790SOL    HW219159   3.146   5.326   1.345 -1.2885 -0.3176 -0.0722
 4790SOL     MW19160   3.110   5.335   1.424 -0.3562 -0.0235  0.3411
 4791SOL     OW19161   0.285   0.739   2.257 -0.6784 -0.9422 -0.5129
 4791SOL    HW119162   0.318   0.767   2.171  0.3810 -1.6882 -0.3782
 4791SOL    HW219163   0.208   0.793   2.272 -0.0722  0.1969 -1.3137
 4791SOL     MW19164   0.280   0.749   2.248 -0.4652 -0.8919 -0.5981
 4792SOL     OW19165   3.875   2.995   0.249 -0.1257  0.1201 -0.5169
 4792SOL    HW119166   3.970   2.996   0.241 -0.0618  0.1753  0.1784
 4792SOL    HW219167   3.845   3.066   0.193  0.3650  1.3026  0.6786
 4792SOL     MW19168   3.883   3.004   0.241 -0.0547  0.2785 -0.2748
 4793SOL     OW19169   2.085   0.311   5.151  0.2943 -0.4805  0.1888
 4793SOL    HW119170   2.038   0.337   5.230 -1.2270 -1.6071 -0.3111
 4793SOL    HW219171   2.057   0.221   5.135  2.3580 -1.0968 -0.3529
 4793SOL     MW19172   2.076   0.303   5.159  0.3637 -0.7036  0.0555
 4794SOL     OW19173   3.689   1.013   3.569  0.3341  0.1169 -0.7879
 4794SOL    HW119174   3.637   1.001   3.490 -1.5786 -0.0759  0.4243
 4794SOL    HW219175   3.639   1.075   3.622  0.4153 -1.3999  1.1927
 4794SOL     MW19176   3.676   1.019   3.566  0.0997 -0.1020 -0.3792
 4795SOL     OW19177   1.450   0.589   0.533  0.3908  0.0636  0.6462
 4795SOL    HW119178   1.515   0.560   0.597  0.1442  1.4682  1.5889
 4795SOL    HW219179   1.408   0.665   0.574  0.8179  1.5846 -1.5174
 4795SOL     MW19180   1.453   0.595   0.546  0.4139  0.4381  0.4899
 4796SOL     OW19181   4.119   0.728   4.050  0.2036 -0.1840 -0.5067
 4796SOL    HW119182   4.211   0.704   4.042  0.4286  0.6144 -0.4300
 4796SOL    HW219183   4.079   0.699   3.968  0.1769 -1.9424  0.0835
 4796SOL     MW19184   4.125   0.721   4.039  0.2289 -0.3069 -0.4214
 4797SOL     OW19185   4.709   1.702   1.635  0.5359 -0.1175  0.5318
 4797SOL    HW119186   4.629   1.748   1.609  1.8416  2.2692  0.4581
 4797SOL    HW219187   4.680   1.615   1.660 -1.5212 -1.2156 -4.3977
 4797SOL     MW19188   4.695   1.697   1.635  0.4397  0.0475 -0.1086
 4798SOL     OW19189   2.408   5.017   3.077 -0.3061  0.0601  0.4723
 4798SOL    HW119190   2.383   4.973   3.159  0.8447 -0.5477  0.5243
 4798SOL    HW219191   2.461   5.091   3.106  0.0229 -0.1005  0.2837
 4798SOL     MW19192   2.412   5.021   3.092 -0.1167 -0.0383  0.4548
 4799SOL     OW19193   2.006   1.512   1.242  0.3682 -0.2063  0.2840
 4799SOL    HW119194   2.040   1.592   1.281 -1.1871  0.6272  0.0129
 4799SOL    HW219195   1.959   1.542   1.163  0.4059 -1.4627 -0.2378
 4799SOL     MW19196   2.004   1.526   1.237  0.1740 -0.2605  0.1825
 4800SOL     OW19197   1.586   0.902   4.245 -0.1291  0.1566  0.1595
 4800SOL    HW119198   1.568   0.996   4.232 -1.2860 -0.1041 -0.3035
 4800SOL    HW219199   1.513   0.858   4.201  1.3708 -1.0130 -1.2864
 4800SOL     MW19200   1.574   0.909   4.238 -0.0852 -0.0265 -0.0849
 4801SOL     OW19201   2.015   4.819   4.021 -0.6358 -0.5138  0.2383
 4801SOL    HW119202   1.988   4.910   4.033  0.1723  0.1233 -2.2922
 4801SOL    HW219203   2.003   4.780   4.107 -1.9119  1.7294  1.1754
 4801SOL     MW19204   2.010   4.826   4.034 -0.6957 -0.1451  0.0343
 4802SOL     OW19205   5.388   4.709   2.508  0.4114 -0.0748  0.1205
 4802SOL    HW119206   5.468   4.659   2.496  0.6483  0.3713 -0.1955
 4802SOL    HW219207   5.346   4.671   2.585  1.3808  0.2825  0.8381
 4802SOL     MW19208   5.393   4.698   2.516  0.5659  0.0281  0.1719
 4803SOL     OW19209   4.927   5.260   4.022 -0.0698 -0.5697 -0.5359
 4803SOL    HW119210   4.902   5.352   4.013 -0.0326 -0.6674 -1.7258
 4803SOL    HW219211   4.989   5.245   3.951  0.5181 -1.3200  0.1225
 4803SOL     MW19212   4.931   5.270   4.012  0.0103 -0.6783 -0.6040
 4804SOL     OW19213   3.245   0.014   0.991  0.5194 -0.1664 -0.3436
 4804SOL    HW119214   3.194   0.080   0.944 -0.7167 -0.5470  0.4263
 4804SOL    HW219215   3.329   0.012   0.945  0.7023  2.1180 -0.2114
 4804SOL     MW19216   3.250   0.022   0.979  0.3846  0.0773 -0.2281
 4805SOL     OW19217   3.985   4.327   2.597  0.4632 -0.0516 -0.1165
 4805SOL    HW119218   4.078   4.315   2.614  0.5329 -1.1872 -1.2050
 4805SOL    HW219219   3.974   4.421   2.585  1.3247  0.1753  0.7774
 4805SOL     MW19220   3.995   4.337   2.598  0.5824 -0.1679 -0.1414
 4806SOL     OW19221   0.822   3.629   3.505 -0.2892 -0.1525 -0.3640
 4806SOL    HW119222   0.836   3.618   3.599 -1.7055  2.1106  0.1809
 4806SOL    HW219223   0.880   3.564   3.465  0.0007 -1.5132  2.0498
 4806SOL     MW19224   0.831   3.619   3.512 -0.4334 -0.0370  0.0147
 4807SOL     OW19225   5.210   4.178   3.215 -0.4456  0.0777  0.4296
 4807SOL    HW119226   5.195   4.093   3.174 -0.3908  0.5068 -0.5206
 4807SOL    HW219227   5.155   4.239   3.165 -0.5635  0.5910  1.1580
 4807SOL     MW19228   5.201   4.175   3.203 -0.4537  0.1983  0.4012
 4808SOL     OW19229   5.057   0.482   3.376  0.4814 -0.0853 -0.1896
 4808SOL    HW119230   4.967   0.470   3.406 -0.2878 -0.5247 -2.4775
 4808SOL    HW219231   5.097   0.396   3.386  0.8050  0.2022  1.1941
 4808SOL     MW19232   5.051   0.469   3.381  0.4244 -0.1048 -0.3053
 4809SOL     OW19233   3.231   0.438   0.993 -0.0400 -0.4935  0.8768
 4809SOL    HW119234   3.169   0.493   0.946 -0.6413 -0.7881  1.3228
 4809SOL    HW219235   3.203   0.441   1.084  0.0180 -1.3948  0.9366
 4809SOL     MW19236   3.220   0.445   0.998 -0.1095 -0.6466  0.9415
 4810SOL     OW19237   3.570   2.612   0.047 -0.8109 -0.3655  0.4916
 4810SOL    HW119238   3.548   2.693  -0.000 -0.3621 -0.3430  0.3121
 4810SOL    HW219239   3.543   2.542  -0.012  1.2531 -0.3489 -0.5813
 4810SOL     MW19240   3.564   2.613   0.033 -0.4892 -0.3605  0.3313
 4811SOL     OW19241   0.593   3.039   3.166  0.2237 -0.7883 -0.1159
 4811SOL    HW119242   0.612   3.062   3.257  0.2944 -0.4478 -0.2139
 4811SOL    HW219243   0.557   3.120   3.128 -0.6457 -1.1767 -0.1576
 4811SOL     MW19244   0.591   3.052   3.173  0.1214 -0.7944 -0.1338
 4812SOL     OW19245   3.089   1.039   0.072  0.6330  0.1318 -0.2734
 4812SOL    HW119246   3.126   1.089  -0.002  0.9475 -1.0573 -0.9519
 4812SOL    HW219247   3.010   0.999   0.036  1.5479 -1.6203 -0.4307
 4812SOL     MW19248   3.084   1.041   0.058  0.7904 -0.2447 -0.3804
 4813SOL     OW19249   1.381   3.835   4.059  0.2273 -0.4155 -0.2373
 4813SOL    HW119250   1.319   3.908   4.057 -1.1919 -1.5630 -0.8762
 4813SOL    HW219251   1.447   3.857   3.993  0.1118  0.5125 -0.0578
 4813SOL     MW19252   1.381   3.847   4.050  0.0308 -0.4436 -0.2961
 4814SOL     OW19253   2.271   1.059   1.393  0.1666  0.7468 -0.1910
 4814SOL    HW119254   2.219   0.997   1.341  0.1639  0.7157 -0.1519
 4814SOL    HW219255   2.207   1.126   1.420  0.3997  1.4061 -1.2082
 4814SOL     MW19256   2.256   1.060   1.390  0.1961  0.8272 -0.3162
 4815SOL     OW19257   1.151   1.543   0.611  0.0661  0.0821 -0.0467
 4815SOL    HW119258   1.114   1.559   0.524 -1.5015 -2.5761  0.0102
 4815SOL    HW219259   1.091   1.586   0.671  0.7417  1.2832 -0.1885
 4815SOL     MW19260   1.139   1.550   0.607 -0.0481 -0.1044 -0.0576
 4816SOL     OW19261   3.022   2.572   5.316 -0.0466  0.5669  0.0847
 4816SOL    HW119262   3.081   2.497   5.321 -1.0507 -0.3649 -1.4158
 4816SOL    HW219263   3.065   2.633   5.256  1.4833  1.9582  2.3993
 4816SOL     MW19264   3.035   2.570   5.309  0.0207  0.6257  0.1889
 4817SOL     OW19265   0.390   1.153   0.611 -0.3130 -0.7416  0.6462
 4817SOL    HW119266   0.352   1.066   0.628  0.6310 -1.5912 -1.2544
 4817SOL    HW219267   0.474   1.134   0.570  0.0805  1.1065  0.5347
 4817SOL     MW19268   0.396   1.139   0.608 -0.1418 -0.6138  0.3886
 4818SOL     OW19269   0.948   5.170   3.159 -0.6622  0.5041 -0.5072
 4818SOL    HW119270   0.965   5.264   3.153 -0.8215  0.6183  0.7148
 4818SOL    HW219271   0.934   5.153   3.252 -2.0280 -0.4820 -0.8576
 4818SOL     MW19272   0.948   5.180   3.170 -0.8574  0.3925 -0.3957
 4819SOL     OW19273   1.791   3.971   4.031  0.0196  0.3397  0.4359
 4819SOL    HW119274   1.868   4.020   4.058 -0.9684  1.5595  1.1827
 4819SOL    HW219275   1.825   3.887   4.001  1.6467  0.9530  0.4666
 4819SOL     MW19276   1.805   3.967   4.031  0.1014  0.5743  0.5355
 4820SOL     OW19277   3.547   5.202   1.387  0.0706  0.7029 -0.1723
 4820SOL    HW119278   3.501   5.223   1.468 -0.7968  0.3197 -0.5574
 4820SOL    HW219279   3.506   5.258   1.321  0.6983  0.9319 -0.3779
 4820SOL     MW19280   3.536   5.212   1.389  0.0399  0.6832 -0.2479
 4821SOL     OW19281   4.155   5.224   3.323  0.2963  0.3895 -0.0887
 4821SOL    HW119282   4.091   5.161   3.290  0.4185 -0.3693  1.0635
 4821SOL    HW219283   4.144   5.301   3.267 -0.8351 -0.1340 -0.6241
 4821SOL     MW19284   4.146   5.226   3.312  0.1671  0.2254 -0.0098
 4822SOL     OW19285   2.564   0.114   2.335 -0.2821  0.4629  0.4036
 4822SOL    HW119286   2.493   0.154   2.287 -0.0022  2.6021  1.6604
 4822SOL    HW219287   2.557   0.149   2.424  0.1542 -2.1159  1.5803
 4822SOL     MW19288   2.554   0.123   2.340 -0.1904  0.4066  0.7152
 4823SOL     OW19289   3.357   5.071   1.054  0.1947  0.2444  0.0888
 4823SOL    HW119290   3.295   5.105   1.119  0.0211 -2.1682  1.2940
 4823SOL    HW219291   3.302   5.021   0.994  0.4576  1.8499 -1.5593
 4823SOL     MW19292   3.342   5.069   1.055  0.2061  0.1411  0.0321
 4824SOL     OW19293   4.184   2.036   1.321  0.0431 -0.1596 -0.4719
 4824SOL    HW119294   4.241   2.059   1.395 -1.3225  0.4301  0.4331
 4824SOL    HW219295   4.121   1.975   1.358 -1.0371  0.6165 -0.9933
 4824SOL     MW19296   4.184   2.031   1.335 -0.2700  0.0152 -0.4228
 4825SOL     OW19297   4.807   5.152   1.905 -0.0631 -0.4091  0.1047
 4825SOL    HW119298   4.827   5.072   1.856  0.4256  0.4739 -1.1734
 4825SOL    HW219299   4.882   5.163   1.964 -0.5934 -1.4034  1.0138
 4825SOL     MW19300   4.819   5.143   1.906 -0.0685 -0.4233  0.0574
 4826SOL     OW19301   2.724   4.440   4.006 -0.4055 -0.5177 -0.2917
 4826SOL    HW119302   2.752   4.528   3.982  1.8740 -1.3636 -1.0513
 4826SOL    HW219303   2.703   4.397   3.923 -2.2032 -0.5172  0.1247
 4826SOL     MW19304   2.725   4.445   3.993 -0.3438 -0.6259 -0.3357
 4827SOL     OW19305   2.455   3.320   0.856 -0.2564  0.2793  0.9313
 4827SOL    HW119306   2.465   3.372   0.935  0.1001  0.0094  1.0619
 4827SOL    HW219307   2.405   3.377   0.797 -0.6895  0.4066  1.4120
 4827SOL     MW19308   2.449   3.334   0.858 -0.2662  0.2610  1.0095
 4828SOL     OW19309   5.457   0.613   1.915 -0.0163 -0.5626  0.4493
 4828SOL    HW119310   5.441   0.703   1.942  0.0384 -0.2401 -0.5461
 4828SOL    HW219311   5.375   0.584   1.876  0.3938 -0.4344 -0.5583
 4828SOL     MW19312   5.445   0.620   1.913  0.0432 -0.5049  0.1929
 4829SOL     OW19313   0.131   4.024   3.588  0.0074  0.5457 -0.2968
 4829SOL    HW119314   0.127   3.967   3.512  1.7474  1.4013 -1.1075
 4829SOL    HW219315   0.104   3.969   3.661 -1.5765 -0.3419 -1.4787
 4829SOL     MW19316   0.127   4.010   3.587  0.0274  0.5416 -0.5519
 4830SOL     OW19317   3.969   2.100   5.403  0.2769  0.4741  0.5523
 4830SOL    HW119318   4.006   2.171   5.351 -0.5870  0.6586  0.1739
 4830SOL    HW219319   3.960   2.027   5.341 -1.5598  0.9614  0.1926
 4830SOL     MW19320   3.973   2.100   5.388 -0.0688  0.5601  0.4578
 4831SOL     OW19321   2.261   0.823   2.151 -0.1802 -0.5943  0.0051
 4831SOL    HW119322   2.328   0.867   2.204 -0.3332 -0.7407  0.3192
 4831SOL    HW219323   2.188   0.884   2.151  0.2566 -0.0472 -1.0500
 4831SOL     MW19324   2.261   0.836   2.158 -0.1439 -0.5430 -0.0898
 4832SOL     OW19325   3.137   1.413   3.807  0.1095 -0.1194 -0.1985
 4832SOL    HW119326   3.153   1.341   3.746  1.2748 -0.7951  0.8742
 4832SOL    HW219327   3.207   1.406   3.872 -0.6599  1.0389  0.7963
 4832SOL     MW19328   3.148   1.403   3.808  0.1602 -0.0576  0.0661
 4833SOL     OW19329   0.472   4.326   1.354 -0.2011  0.0576 -0.3941
 4833SOL    HW119330   0.505   4.299   1.439  1.3732  1.7471 -0.4038
 4833SOL    HW219331   0.495   4.254   1.295  2.3149  0.5599 -0.1166
 4833SOL     MW19332   0.479   4.313   1.357  0.3225  0.3382 -0.3598
 4834SOL     OW19333   2.458   2.836   5.448  0.0334  0.0023  0.4836
 4834SOL    HW119334   2.530   2.802   5.395 -0.1984  0.0900  0.1143
 4834SOL    HW219335   2.391   2.767   5.446 -0.4221  0.4512 -0.2367
 4834SOL     MW19336   2.459   2.823   5.441 -0.0546  0.0710  0.3441
 4835SOL     OW19337   1.329   2.787   0.325 -0.5520  0.2328 -0.0016
 4835SOL    HW119338   1.365   2.703   0.353 -0.4460  0.5955  0.9679
 4835SOL    HW219339   1.240   2.788   0.361 -0.4700  0.6378  0.1888
 4835SOL     MW19340   1.322   2.776   0.333 -0.5280  0.3310  0.1469
 4836SOL     OW19341   5.369   0.746   0.480 -0.9294  0.3099  0.3482
 4836SOL    HW119342   5.373   0.822   0.421  0.6458 -0.0810 -0.0844
 4836SOL    HW219343   5.324   0.679   0.429  0.2768  0.0265 -0.3820
 4836SOL     MW19344   5.363   0.747   0.466 -0.5733  0.2236  0.1993
 4837SOL     OW19345   2.033   4.682   0.790 -0.1558 -0.1998  0.1505
 4837SOL    HW119346   2.016   4.610   0.850 -0.2379  0.0792  0.4633
 4837SOL    HW219347   2.033   4.641   0.703  0.8758 -0.7517  0.4053
 4837SOL     MW19348   2.031   4.668   0.786 -0.0343 -0.2347  0.2232
 4838SOL     OW19349   4.288   3.596   0.597  0.0118 -0.7544  0.4661
 4838SOL    HW119350   4.378   3.612   0.626 -0.3196  3.1996 -0.1454
 4838SOL    HW219351   4.252   3.537   0.664  2.5125 -1.0387  1.6907
 4838SOL     MW19352   4.295   3.590   0.609  0.2895 -0.2846  0.5446
 4839SOL     OW19353   3.668   4.731   3.164 -0.1636 -0.1668  0.1154
 4839SOL    HW119354   3.642   4.672   3.094 -1.3492  0.8956 -0.3735
 4839SOL    HW219355   3.701   4.674   3.234  1.1252 -1.2375 -1.3149
 4839SOL     MW19356   3.669   4.716   3.164 -0.1504 -0.1678 -0.1303
 4840SOL     OW19357   4.582   4.293   4.835  0.5261 -0.8368  0.2780
 4840SOL    HW119358   4.596   4.200   4.818  2.0030 -0.6106  0.1545
 4840SOL    HW219359   4.542   4.295   4.922 -1.5691 -1.6716 -0.5896
 4840SOL     MW19360   4.579   4.281   4.844  0.4469 -0.9147  0.1511
 4841SOL     OW19361   0.624   5.164   1.277 -0.7041 -0.4741  0.2229
 4841SOL    HW119362   0.637   5.257   1.293 -3.0351  0.0576 -0.5709
 4841SOL    HW219363   0.668   5.147   1.194  0.2369 -0.2515  0.6603
 4841SOL     MW19364   0.631   5.174   1.268 -0.8821 -0.3776  0.1773
 4842SOL     OW19365   1.268   4.219   3.707  0.1357  0.1683  0.1934
 4842SOL    HW119366   1.320   4.177   3.639 -0.9132 -0.8948  0.0268
 4842SOL    HW219367   1.267   4.312   3.683  1.3047  0.0925 -0.2031
 4842SOL     MW19368   1.274   4.226   3.695  0.1510  0.0225  0.1213
 4843SOL     OW19369   3.375   2.803   3.586  0.1381  0.0103  0.2308
 4843SOL    HW119370   3.282   2.782   3.599  0.0936  0.6883  1.1139
 4843SOL    HW219371   3.400   2.756   3.507 -1.0636  0.1284 -0.2303
 4843SOL     MW19372   3.366   2.795   3.578 -0.0214  0.1122  0.2848
 4844SOL     OW19373   0.657   2.490   1.431  0.1860 -0.4358  0.4386
 4844SOL    HW119374   0.748   2.514   1.448  0.2009 -1.6745  2.4133
 4844SOL    HW219375   0.629   2.443   1.509 -2.0501 -0.4445 -0.2772
 4844SOL     MW19376   0.665   2.487   1.443 -0.0984 -0.5955  0.5997
 4845SOL     OW19377   1.262   0.675   3.632 -0.3448 -0.0223  0.2861
 4845SOL    HW119378   1.344   0.656   3.587 -0.5692 -3.6635  1.1326
 4845SOL    HW219379   1.249   0.769   3.618  2.6162  0.2101 -2.0234
 4845SOL     MW19380   1.271   0.685   3.625  0.0055 -0.4587  0.0988
 4846SOL     OW19381   0.101   2.835   2.915 -0.5020 -0.2919  0.3287
 4846SOL    HW119382   0.187   2.820   2.877 -0.1025 -1.8726  1.7344
 4846SOL    HW219383   0.071   2.918   2.876  2.1959  1.0130  0.7944
 4846SOL     MW19384   0.108   2.844   2.905 -0.1055 -0.3272  0.5682
 4847SOL     OW19385   4.774   3.855   4.458  0.1115 -0.8156  0.6583
 4847SOL    HW119386   4.725   3.779   4.488  0.1365 -1.6805 -1.3474
 4847SOL    HW219387   4.825   3.883   4.534 -0.1798 -2.5708  1.5351
 4847SOL     MW19388   4.775   3.849   4.471  0.0774 -1.1510  0.5138
 4848SOL     OW19389   4.593   0.293   1.887  0.2368 -0.0084 -0.5979
 4848SOL    HW119390   4.583   0.339   1.803  0.6429 -1.6162 -1.5737
 4848SOL    HW219391   4.681   0.255   1.883  0.3573  0.1144  0.6746
 4848SOL     MW19392   4.603   0.294   1.876  0.3042 -0.1985 -0.5599
 4849SOL     OW19393   2.040   3.343   3.168 -0.4398  0.3763 -0.3772
 4849SOL    HW119394   2.007   3.370   3.082 -0.5283  0.4231 -0.3293
 4849SOL    HW219395   1.964   3.306   3.212  0.2644 -2.7110 -1.5206
 4849SOL     MW19396   2.026   3.342   3.163 -0.3610 -0.0129 -0.5174
 4850SOL     OW19397   3.821   2.426   5.304 -0.0127 -0.0558  0.1536
 4850SOL    HW119398   3.777   2.511   5.311  1.3379  0.8723 -1.7068
 4850SOL    HW219399   3.766   2.366   5.356 -2.0652  1.5268 -0.0468
 4850SOL     MW19400   3.808   2.429   5.312 -0.1026  0.2656 -0.1102
 4851SOL     OW19401   1.506   1.830   0.310  0.2984  0.1557 -0.5051
 4851SOL    HW119402   1.508   1.919   0.274 -1.1688  0.9726  1.2700
 4851SOL    HW219403   1.575   1.831   0.377 -0.6359  0.4420  0.4797
 4851SOL     MW19404   1.515   1.842   0.314 -0.0090  0.2969 -0.1518
 4852SOL     OW19405   4.594   4.213   0.505 -0.2960 -0.0260  0.1201
 4852SOL    HW119406   4.564   4.242   0.419 -1.1966  1.4330  0.8882
 4852SOL    HW219407   4.617   4.293   0.551 -0.0001 -0.7689  1.3051
 4852SOL     MW19408   4.593   4.227   0.500 -0.3734  0.0657  0.3701
 4853SOL     OW19409   0.495   2.788   4.196 -0.1591  0.1290  0.2685
 4853SOL    HW119410   0.420   2.730   4.191 -0.3772  0.4291  0.0603
 4853SOL    HW219411   0.523   2.784   4.288  0.0827 -0.6245  0.1664
 4853SOL     MW19412   0.489   2.780   4.207 -0.1561  0.0710  0.2288
 4854SOL     OW19413   3.723   3.975   1.433 -0.5076  0.0859  0.1349
 4854SOL    HW119414   3.709   3.984   1.339  1.5849  0.8222 -0.1484
 4854SOL    HW219415   3.683   4.054   1.470 -0.1957  0.4483 -0.2861
 4854SOL     MW19416   3.716   3.987   1.426 -0.1998  0.2266  0.0447
 4855SOL     OW19417   2.414   0.796   2.807  0.2591  0.3813 -0.0584
 4855SOL    HW119418   2.333   0.843   2.826  0.3942  0.7177 -0.2983
 4855SOL    HW219419   2.438   0.754   2.890 -0.1724  0.2602  0.0028
 4855SOL     MW19420   2.407   0.797   2.820  0.2211  0.4089 -0.0812
 4856SOL     OW19421   2.642   0.216   1.800 -0.0182  0.0235  0.2556
 4856SOL    HW119422   2.576   0.202   1.868 -0.2207 -0.5521 -0.0527
 4856SOL    HW219423   2.591   0.225   1.719  0.2090  0.8717  0.2001
 4856SOL     MW19424   2.627   0.215   1.798 -0.0150  0.0584  0.2090
 4857SOL     OW19425   3.012   2.332   3.638  0.4737  0.0116 -0.6361
 4857SOL    HW119426   2.951   2.404   3.653 -0.2000  0.0210 -2.9250
 4857SOL    HW219427   2.958   2.253   3.647  1.0891 -0.2316  1.3330
 4857SOL     MW19428   2.997   2.331   3.641  0.4662 -0.0183 -0.6771
 4858SOL     OW19429   1.416   4.158   1.617  0.5871 -0.0495 -0.2087
 4858SOL    HW119430   1.430   4.253   1.623 -1.6480  0.3660 -0.5913
 4858SOL    HW219431   1.472   4.130   1.545 -0.3426  1.4130 -1.5820
 4858SOL     MW19432   1.425   4.167   1.609  0.1820  0.1909 -0.4334
 4859SOL     OW19433   2.970   4.330   1.085 -0.0384  0.6929  0.2783
 4859SOL    HW119434   3.004   4.244   1.059  1.8180  0.3539  3.3662
 4859SOL    HW219435   2.877   4.315   1.100  0.4678 -1.2399  2.0556
 4859SOL     MW19436   2.963   4.317   1.084  0.2640  0.4021  0.9011
 4860SOL     OW19437   4.271   3.079   3.604 -0.1845 -0.1799 -0.2557
 4860SOL    HW119438   4.295   3.096   3.695  1.2778 -0.9689 -0.4613
 4860SOL    HW219439   4.242   2.988   3.604 -0.5873 -0.0525 -0.5148
 4860SOL     MW19440   4.270   3.070   3.616 -0.0489 -0.2646 -0.3152
 4861SOL     OW19441   1.439   5.015   4.851  0.4384  0.1578  0.4117
 4861SOL    HW119442   1.490   4.944   4.888  0.5801 -0.6978 -1.3120
 4861SOL    HW219443   1.350   5.001   4.885  0.5169 -0.7103  0.2766
 4861SOL     MW19444   1.434   5.004   4.860  0.4666 -0.0628  0.1737
 4862SOL     OW19445   0.406   4.177   2.708 -0.6857  0.3004  0.0499
 4862SOL    HW119446   0.329   4.137   2.749 -1.1092  0.2629 -0.7484
 4862SOL    HW219447   0.408   4.266   2.743 -1.3969  0.4617 -0.2912
 4862SOL     MW19448   0.396   4.183   2.718 -0.8310  0.3162 -0.0960
 4863SOL     OW19449   4.962   3.871   4.649 -0.5009 -0.2170  0.6077
 4863SOL    HW119450   4.984   3.814   4.722 -0.5652  0.5827  1.2636
 4863SOL    HW219451   5.032   3.857   4.585  0.3023  0.0823  1.4088
 4863SOL     MW19452   4.974   3.862   4.650 -0.4063 -0.0763  0.7942
 4864SOL     OW19453   2.562   0.847   3.743 -0.2095  0.3566 -0.2996
 4864SOL    HW119454   2.594   0.813   3.827  0.4545  2.1818  0.2338
 4864SOL    HW219455   2.641   0.880   3.699 -0.7819  0.9898 -0.8758
 4864SOL     MW19456   2.576   0.847   3.748 -0.1977  0.6713 -0.3051
 4865SOL     OW19457   3.062   1.051   1.242 -0.1746 -0.0374 -0.1094
 4865SOL    HW119458   3.096   1.102   1.168 -0.2593 -0.8717 -0.7340
 4865SOL    HW219459   2.970   1.074   1.247 -0.5224 -1.0608 -1.2113
 4865SOL     MW19460   3.055   1.060   1.233 -0.2299 -0.2752 -0.3304
 4866SOL     OW19461   3.627   4.265   5.369  0.4296 -0.2243 -0.0007
 4866SOL    HW119462   3.533   4.259   5.354  0.1546  2.0944  0.4445
 4866SOL    HW219463   3.643   4.357   5.391  2.8409 -0.4940 -0.2708
 4866SOL     MW19464   3.617   4.276   5.370  0.7031  0.0380  0.0217
 4867SOL     OW19465   0.374   5.313   4.640 -0.7453 -0.0508 -0.0317
 4867SOL    HW119466   0.442   5.350   4.585 -1.4568 -0.5755 -1.2953
 4867SOL    HW219467   0.326   5.389   4.673  0.1645  0.3014  0.5371
 4867SOL     MW19468   0.377   5.327   4.638 -0.7199 -0.0729 -0.1207
 4868SOL     OW19469   2.205   4.502   5.011  0.1951 -0.4386 -0.1733
 4868SOL    HW119470   2.120   4.479   5.048  0.6999 -0.5869  0.9285
 4868SOL    HW219471   2.223   4.433   4.948 -0.2822 -0.6627 -0.0706
 4868SOL     MW19472   2.196   4.490   5.007  0.1986 -0.4863 -0.0191
 4869SOL     OW19473   3.507   1.070   3.030 -0.4220  0.3924  0.0970
 4869SOL    HW119474   3.415   1.089   3.012 -0.6010 -1.7687 -1.7316
 4869SOL    HW219475   3.556   1.131   2.975 -0.6920  1.8594  1.4123
 4869SOL     MW19476   3.501   1.080   3.021 -0.4795  0.3036  0.0313
 4870SOL     OW19477   4.925   3.791   3.730  0.3408 -0.3112  0.1352
 4870SOL    HW119478   4.943   3.784   3.823  0.2387 -1.0527  0.1080
 4870SOL    HW219479   4.962   3.875   3.704  0.1948 -0.0095  0.8799
 4870SOL     MW19480   4.932   3.801   3.738  0.3091 -0.3675  0.2270
 4871SOL     OW19481   1.739   4.190   3.539  0.5047  0.5024  0.4620
 4871SOL    HW119482   1.650   4.208   3.508  0.6680 -1.4649 -1.4362
 4871SOL    HW219483   1.730   4.180   3.634 -1.8611 -2.0358  0.1200
 4871SOL     MW19484   1.726   4.191   3.547  0.2227 -0.0744  0.1752
 4872SOL     OW19485   1.846   0.138   3.161 -0.6748  0.3393 -0.9959
 4872SOL    HW119486   1.940   0.159   3.166 -0.4695 -0.7755  2.3165
 4872SOL    HW219487   1.804   0.206   3.214 -1.3490 -0.7907 -0.0257
 4872SOL     MW19488   1.853   0.150   3.168 -0.7348  0.0519 -0.4477
 4873SOL     OW19489   2.682   0.815   1.320 -0.1685 -0.2703  0.0920
 4873SOL    HW119490   2.616   0.809   1.390  1.3710 -1.0978  1.5509
 4873SOL    HW219491   2.727   0.897   1.336 -0.4576  0.0249 -0.5683
 4873SOL     MW19492   2.679   0.824   1.331 -0.0084 -0.3384  0.1943
 4874SOL     OW19493   1.290   1.887   3.578 -0.0584  0.1046 -0.0640
 4874SOL    HW119494   1.221   1.944   3.614 -0.6280 -0.8450  0.3728
 4874SOL    HW219495   1.371   1.919   3.619 -0.7518 -1.2827  2.5655
 4874SOL     MW19496   1.292   1.899   3.588 -0.2200 -0.1946  0.3285
 4875SOL     OW19497   3.764   3.181   3.569 -0.7083  0.3193  0.5111
 4875SOL    HW119498   3.678   3.138   3.558 -0.4102  0.1797 -1.7048
 4875SOL    HW219499   3.793   3.154   3.656 -1.9334 -1.4582  0.4230
 4875SOL     MW19500   3.756   3.172   3.579 -0.8270  0.0739  0.2162
 4876SOL     OW19501   2.289   0.956   1.661 -0.3019 -0.3845  0.0327
 4876SOL    HW119502   2.295   0.860   1.665  0.8283 -0.3039  2.1872
 4876SOL    HW219503   2.281   0.976   1.568  3.2350 -2.4492 -0.9115
 4876SOL     MW19504   2.289   0.946   1.650  0.2955 -0.6385  0.1877
 4877SOL     OW19505   4.228   3.845   3.443  0.1034  0.3623  0.0789
 4877SOL    HW119506   4.134   3.858   3.454  0.1048 -0.2585  0.8993
 4877SOL    HW219507   4.260   3.819   3.530  0.5669 -2.0937 -0.7296
 4877SOL     MW19508   4.220   3.843   3.456  0.1629 -0.0316  0.0804
 4878SOL     OW19509   1.721   3.899   4.284 -0.3352 -0.2534 -0.2870
 4878SOL    HW119510   1.736   3.925   4.193  2.2654  0.8760  0.3919
 4878SOL    HW219511   1.720   3.803   4.281 -0.5833 -0.2424 -1.5027
 4878SOL     MW19512   1.723   3.890   4.272 -0.0341 -0.1074 -0.3557
 4879SOL     OW19513   1.307   1.818   0.487 -0.2218 -0.4251 -0.0137
 4879SOL    HW119514   1.297   1.739   0.540 -0.5399 -1.2948 -1.3340
 4879SOL    HW219515   1.391   1.807   0.442  1.4809  1.6198  2.3728
 4879SOL     MW19516   1.317   1.807   0.488 -0.0446 -0.2747  0.1227
 4880SOL     OW19517   4.726   1.578   0.446 -0.0578  0.3758 -0.5037
 4880SOL    HW119518   4.667   1.653   0.443 -0.5162 -0.0007 -1.6853
 4880SOL    HW219519   4.672   1.504   0.417  0.7911 -0.1062 -0.8993
 4880SOL     MW19520   4.711   1.578   0.442 -0.0078  0.2659 -0.7056
 4881SOL     OW19521   2.330   2.124   4.183 -0.1114  0.0177 -0.0811
 4881SOL    HW119522   2.425   2.112   4.193  0.1303  0.9429 -1.1134
 4881SOL    HW219523   2.306   2.184   4.253 -0.0808 -0.7776  0.6345
 4881SOL     MW19524   2.339   2.130   4.193 -0.0766  0.0343 -0.1216
 4882SOL     OW19525   3.485   1.634   0.942 -0.7080 -0.5295 -0.1698
 4882SOL    HW119526   3.427   1.596   0.877 -1.6199  0.3164  0.1233
 4882SOL    HW219527   3.498   1.725   0.912 -0.7758 -0.2687  0.5752
 4882SOL     MW19528   3.480   1.641   0.930 -0.8334 -0.3878 -0.0369
 4883SOL     OW19529   0.419   2.376   3.522  0.2270 -0.1887 -0.0910
 4883SOL    HW119530   0.402   2.386   3.428 -1.0597  0.5093  0.2019
 4883SOL    HW219531   0.336   2.347   3.559  0.9612 -1.3573  0.7309
 4883SOL     MW19532   0.407   2.373   3.515  0.1563 -0.2490  0.0517
 4884SOL     OW19533   3.347   5.000   0.430  0.0247 -0.4073 -0.2603
 4884SOL    HW119534   3.405   4.981   0.356  1.0097 -1.1595  0.6663
 4884SOL    HW219535   3.406   5.031   0.498 -0.6387 -1.3177  0.7609
 4884SOL     MW19536   3.362   5.002   0.429  0.0659 -0.6201 -0.0109
 4885SOL     OW19537   3.242   1.398   2.433 -0.6242  0.5355 -0.5811
 4885SOL    HW119538   3.236   1.315   2.385 -1.3218  1.7752 -2.7961
 4885SOL    HW219539   3.154   1.412   2.467 -0.1380 -0.3237  1.1261
 4885SOL     MW19540   3.230   1.389   2.431 -0.6513  0.5842 -0.6461
 4886SOL     OW19541   0.422   2.925   0.814  0.0655 -0.0608 -0.2286
 4886SOL    HW119542   0.506   2.880   0.807  0.6316  1.1267 -1.5984
 4886SOL    HW219543   0.382   2.913   0.727 -0.4817  0.6777 -0.0887
 4886SOL     MW19544   0.427   2.917   0.802  0.0679  0.1857 -0.3861
 4887SOL     OW19545   3.051   2.904   4.498  0.1143  0.0772 -0.4544
 4887SOL    HW119546   3.021   2.867   4.415  0.3126  0.4567 -0.6936
 4887SOL    HW219547   2.972   2.905   4.553  0.2599 -1.4246 -0.1668
 4887SOL     MW19548   3.037   2.900   4.495  0.1583 -0.0664 -0.4482
 4888SOL     OW19549   2.977   2.410   1.146  0.5300 -0.3919 -0.3388
 4888SOL    HW119550   3.039   2.444   1.082  0.4710  0.6303  0.1332
 4888SOL    HW219551   2.909   2.477   1.153  1.1743  0.1093  1.7116
 4888SOL     MW19552   2.976   2.423   1.139  0.6049 -0.1969 -0.0159
 4889SOL     OW19553   3.484   0.704   1.341 -0.0755  0.2628 -0.1701
 4889SOL    HW119554   3.473   0.618   1.381 -0.9875 -0.3083 -1.5716
 4889SOL    HW219555   3.530   0.755   1.407 -2.0688 -0.4280  1.8852
 4889SOL     MW19556   3.489   0.699   1.355 -0.4474  0.1013 -0.0864
 4890SOL     OW19557   3.668   4.305   0.717 -0.1635 -0.4922 -0.6060
 4890SOL    HW119558   3.676   4.354   0.635 -2.2368  0.2232 -0.4353
 4890SOL    HW219559   3.614   4.360   0.774  1.2951 -0.9198  1.3241
 4890SOL     MW19560   3.662   4.318   0.714 -0.2422 -0.4554 -0.3371
 4891SOL     OW19561   3.908   1.164   3.461  0.3485 -0.0561  0.6772
 4891SOL    HW119562   3.838   1.127   3.515  0.3180  0.7005  1.1765
 4891SOL    HW219563   3.864   1.195   3.382  0.4510 -1.5310  0.0018
 4891SOL     MW19564   3.893   1.163   3.457  0.3577 -0.1481  0.6547
 4892SOL     OW19565   4.162   1.291   1.702  0.1620 -0.2770 -0.2230
 4892SOL    HW119566   4.181   1.203   1.668 -0.7956  0.0846 -1.8436
 4892SOL    HW219567   4.247   1.324   1.730  0.7289 -1.3199 -0.6243
 4892SOL     MW19568   4.176   1.284   1.701  0.1120 -0.3642 -0.4818
 4893SOL     OW19569   3.631   0.279   2.952  0.1790  0.6729 -0.2662
 4893SOL    HW119570   3.590   0.347   2.898 -0.3386 -0.0084 -0.7539
 4893SOL    HW219571   3.662   0.214   2.889 -0.7742 -0.3283  0.2448
 4893SOL     MW19572   3.629   0.279   2.937 -0.0093  0.4575 -0.2632
 4894SOL     OW19573   2.364   4.455   5.214  0.1287  0.7320 -0.0972
 4894SOL    HW119574   2.295   4.463   5.148  1.2996  1.5025 -1.2761
 4894SOL    HW219575   2.345   4.373   5.258  0.9440 -1.3870 -3.3775
 4894SOL     MW19576   2.353   4.446   5.211  0.3829  0.5594 -0.6680
 4895SOL     OW19577   2.401   2.897   2.889 -0.4676  0.2430 -0.1513
 4895SOL    HW119578   2.454   2.818   2.893  0.3276  0.7674 -0.1197
 4895SOL    HW219579   2.423   2.937   2.805 -2.3498 -0.5684 -1.0926
 4895SOL     MW19580   2.411   2.892   2.879 -0.6068  0.2062 -0.2677
 4896SOL     OW19581   2.245   2.963   1.126  0.4380 -0.6702  0.3406
 4896SOL    HW119582   2.314   2.980   1.191  1.1890  1.3265 -0.8745
 4896SOL    HW219583   2.290   2.969   1.042 -0.6422 -2.5728 -0.4235
 4896SOL     MW19584   2.260   2.966   1.124  0.3958 -0.6582  0.0873
 4897SOL     OW19585   1.695   4.527   0.104  0.2529 -0.2471  0.1428
 4897SOL    HW119586   1.782   4.547   0.070  0.0020 -0.6636 -0.7708
 4897SOL    HW219587   1.702   4.541   0.199  0.7787  1.6383 -0.1255
 4897SOL     MW19588   1.707   4.532   0.112  0.2881 -0.0591 -0.0085
 4898SOL     OW19589   2.486   1.495   1.872  0.5059 -0.1688 -0.0848
 4898SOL    HW119590   2.477   1.566   1.936  0.8841 -0.6866  0.5525
 4898SOL    HW219591   2.474   1.415   1.923  1.5853 -0.6167 -0.5154
 4898SOL     MW19592   2.483   1.494   1.887  0.6925 -0.2924 -0.0584
 4899SOL     OW19593   2.170   4.155   1.895  0.1662  0.1664 -0.5541
 4899SOL    HW119594   2.241   4.124   1.952 -0.6049 -0.0958  0.2912
 4899SOL    HW219595   2.163   4.088   1.827  0.1952 -0.2276 -0.1748
 4899SOL     MW19596   2.178   4.142   1.894  0.0712  0.0824 -0.3973
 4900SOL     OW19597   4.481   3.991   3.385  0.3167  0.3608  0.1104
 4900SOL    HW119598   4.543   3.947   3.328  0.1767 -0.5046  0.6039
 4900SOL    HW219599   4.415   3.924   3.405 -0.7342  1.2258 -0.3303
 4900SOL     MW19600   4.480   3.977   3.381  0.1643  0.3608  0.1171
 4901SOL     OW19601   1.714   2.665   4.153 -0.0165 -0.6746  0.5135
 4901SOL    HW119602   1.759   2.581   4.143  0.6863 -0.1744 -0.5973
 4901SOL    HW219603   1.716   2.705   4.067  0.9695  1.1503  1.3200
 4901SOL     MW19604   1.720   2.659   4.141  0.1997 -0.3770  0.4745
 4902SOL     OW19605   0.167   4.543   3.157  0.1012 -0.1580  0.1294
 4902SOL    HW119606   0.198   4.594   3.082  0.3961  0.8257  0.9066
 4902SOL    HW219607   0.095   4.490   3.121  1.0718 -0.6655 -1.1354
 4902SOL     MW19608   0.162   4.543   3.143  0.2632 -0.0971  0.0670
 4903SOL     OW19609   2.135   0.985   0.054  0.4564 -0.1863 -0.8924
 4903SOL    HW119610   2.181   0.967  -0.028  1.3528 -0.8835 -0.2651
 4903SOL    HW219611   2.116   1.079   0.051  0.5830 -0.1754 -1.8287
 4903SOL     MW19612   2.138   0.995   0.043  0.5874 -0.2741 -0.9319
 4904SOL     OW19613   3.774   2.489   2.438  0.4313 -0.2041  0.0924
 4904SOL    HW119614   3.759   2.532   2.522 -0.4773 -0.2543 -0.0357
 4904SOL    HW219615   3.728   2.544   2.374  0.6132 -0.4915 -0.2911
 4904SOL     MW19616   3.767   2.502   2.441  0.3383 -0.2473  0.0269
 4905SOL     OW19617   3.084   0.796   0.464 -0.2122  0.0111 -0.0499
 4905SOL    HW119618   3.041   0.721   0.505  0.2999 -0.1009  0.2984
 4905SOL    HW219619   3.176   0.768   0.454 -0.7867 -1.0890 -3.8825
 4905SOL     MW19620   3.091   0.783   0.468 -0.2202 -0.1441 -0.4959
 4906SOL     OW19621   4.482   5.134   4.487  0.4148 -0.1912 -0.6857
 4906SOL    HW119622   4.539   5.203   4.452  0.8008 -0.4840 -0.6439
 4906SOL    HW219623   4.442   5.094   4.410 -0.9881  1.0574 -0.6482
 4906SOL     MW19624   4.484   5.137   4.473  0.2847 -0.0688 -0.6755
 4907SOL     OW19625   5.481   4.153   3.229  0.2763  0.1875  0.3965
 4907SOL    HW119626   5.517   4.206   3.301  0.5718  0.9318 -0.2922
 4907SOL    HW219627   5.388   4.172   3.229 -0.1514 -1.5627  2.0314
 4907SOL     MW19628   5.474   4.162   3.238  0.2594  0.0587  0.5176
 4908SOL     OW19629   1.704   1.625   1.283  0.0455  0.5156 -0.5495
 4908SOL    HW119630   1.799   1.611   1.281 -0.1167 -1.2282  1.1658
 4908SOL    HW219631   1.671   1.571   1.211  0.2353 -0.2747 -0.0571
 4908SOL     MW19632   1.712   1.617   1.273  0.0491  0.1912 -0.2669
 4909SOL     OW19633   0.366   1.175   4.903 -0.2186 -0.6499 -0.1375
 4909SOL    HW119634   0.283   1.190   4.949  0.3134  0.0091  0.6574
 4909SOL    HW219635   0.366   1.082   4.881 -1.4409 -0.5292 -0.7118
 4909SOL     MW19636   0.356   1.165   4.906 -0.3070 -0.5501 -0.1092
 4910SOL     OW19637   3.784   2.973   1.050 -0.2016  0.8487 -0.1092
 4910SOL    HW119638   3.824   2.925   0.978 -0.6287  0.8980 -0.3829
 4910SOL    HW219639   3.700   2.929   1.063 -1.7740  3.0669 -2.0579
 4910SOL     MW19640   3.778   2.961   1.043 -0.4576  1.1389 -0.3937
 4911SOL     OW19641   1.392   5.315   2.724  0.2019 -0.3308 -0.1585
 4911SOL    HW119642   1.441   5.299   2.643  1.5859  0.5255  0.4747
 4911SOL    HW219643   1.409   5.406   2.745 -0.8879 -0.2856  0.6242
 4911SOL     MW19644   1.400   5.324   2.716  0.2396 -0.2154  0.0227
 4912SOL     OW19645   1.684   3.532   2.866  0.0731  0.0973  0.6676
 4912SOL    HW119646   1.736   3.565   2.939 -0.2346  2.0719  0.0641
 4912SOL    HW219647   1.595   3.562   2.884 -0.0131  0.6108 -0.4738
 4912SOL     MW19648   1.679   3.540   2.878  0.0227  0.4158  0.4442
 4913SOL     OW19649   1.889   3.851   4.570  0.0075  0.1452 -0.2597
 4913SOL    HW119650   1.881   3.789   4.643  1.3604  1.2848  0.9233
 4913SOL    HW219651   1.818   3.913   4.583 -0.4201 -0.2812 -0.5554
 4913SOL     MW19652   1.879   3.851   4.581  0.1259  0.2365 -0.1461
 4914SOL     OW19653   0.685   5.105   3.048  0.6607  0.2522  0.0370
 4914SOL    HW119654   0.779   5.110   3.064  0.6733  0.8650 -0.1863
 4914SOL    HW219655   0.668   5.012   3.031  0.9964 -0.0730  1.4007
 4914SOL     MW19656   0.695   5.094   3.048  0.7053  0.2890  0.1830
 4915SOL     OW19657   1.941   3.930   0.769 -0.3265 -0.0897  0.1419
 4915SOL    HW119658   2.011   3.977   0.724 -1.0285  1.7946  0.8835
 4915SOL    HW219659   1.985   3.864   0.821  0.8060  0.3412 -0.2445
 4915SOL     MW19660   1.956   3.928   0.770 -0.2714  0.2067  0.1874
 4916SOL     OW19661   0.443   3.254   5.426 -0.3923 -0.3230 -0.1835
 4916SOL    HW119662   0.472   3.312   5.356 -3.1832 -0.0889 -1.2920
 4916SOL    HW219663   0.409   3.177   5.380  0.3737 -1.4568  1.0980
 4916SOL     MW19664   0.442   3.252   5.411 -0.6515 -0.4382 -0.1614
 4917SOL     OW19665   0.211   0.877   4.064 -0.1095 -0.5051  0.1554
 4917SOL    HW119666   0.255   0.793   4.050 -0.6121 -0.8496  0.6225
 4917SOL    HW219667   0.207   0.886   4.160  0.0663  0.1196  0.1110
 4917SOL     MW19668   0.216   0.867   4.075 -0.1513 -0.4692  0.2095
 4918SOL     OW19669   3.984   3.754   2.787  0.2229  0.1741  0.1987
 4918SOL    HW119670   4.007   3.663   2.770 -1.8204 -0.6116  1.3390
 4918SOL    HW219671   4.031   3.776   2.867  2.1135  0.7529 -0.9988
 4918SOL     MW19672   3.993   3.745   2.795  0.2034  0.1476  0.1914
 4919SOL     OW19673   5.205   1.255   2.505 -0.0025 -0.1264  0.8209
 4919SOL    HW119674   5.289   1.245   2.460 -0.4682  0.0121 -0.1173
 4919SOL    HW219675   5.179   1.345   2.488  0.6008  0.4683  2.8333
 4919SOL     MW19676   5.212   1.265   2.497  0.0151 -0.0326  0.9584
 4920SOL     OW19677   1.041   1.424   4.013  0.1828 -0.1355 -0.6470
 4920SOL    HW119678   1.063   1.404   3.922 -0.1877 -1.0777 -0.5460
 4920SOL    HW219679   0.945   1.416   4.017  0.2179 -0.3364 -0.1246
 4920SOL     MW19680   1.031   1.420   4.002  0.1398 -0.2819 -0.5672
 4921SOL     OW19681   0.637   3.334   1.580  0.0217 -0.6717  0.2321
 4921SOL    HW119682   0.591   3.415   1.599  0.2193  0.0371 -1.9804
 4921SOL    HW219683   0.721   3.343   1.624  0.0956  0.4234 -0.1041
 4921SOL     MW19684   0.642   3.346   1.588  0.0564 -0.4408 -0.0942
 4922SOL     OW19685   5.018   2.875   2.250  0.0461  0.5849 -0.0843
 4922SOL    HW119686   4.948   2.819   2.284  0.0995  0.5628 -0.0091
 4922SOL    HW219687   5.095   2.850   2.300  0.6936 -1.0983 -1.8210
 4922SOL     MW19688   5.019   2.865   2.261  0.1358  0.3666 -0.2970
 4923SOL     OW19689   4.280   4.499   3.931 -0.1717  0.0060  0.2231
 4923SOL    HW119690   4.326   4.438   3.989 -0.0821 -0.1057  0.0354
 4923SOL    HW219691   4.188   4.491   3.957 -0.0826  0.2633  0.6300
 4923SOL     MW19692   4.274   4.490   3.942 -0.1488  0.0247  0.2511
 4924SOL     OW19693   2.685   3.489   2.180 -0.1759 -0.1157  0.4167
 4924SOL    HW119694   2.674   3.466   2.088  0.4565 -0.7960  0.4995
 4924SOL    HW219695   2.756   3.554   2.180  1.7042 -2.0537  0.6215
 4924SOL     MW19696   2.693   3.494   2.168  0.1457 -0.4509  0.4535
 4925SOL     OW19697   1.802   0.076   1.876 -0.3175  0.3266  0.0719
 4925SOL    HW119698   1.875   0.026   1.839 -0.0241 -0.6207  1.7911
 4925SOL    HW219699   1.821   0.167   1.852  2.2336  0.3047  1.6013
 4925SOL     MW19700   1.814   0.081   1.868  0.0466  0.2025  0.4877
 4926SOL     OW19701   1.394   2.698   3.351  0.1523  0.1990  0.5282
 4926SOL    HW119702   1.373   2.715   3.259  0.8859 -0.9527  0.1190
 4926SOL    HW219703   1.315   2.655   3.386  0.1938 -0.1742  0.1788
 4926SOL     MW19704   1.381   2.694   3.344  0.2515  0.0038  0.4311
 4927SOL     OW19705   3.829   1.047   0.830  0.1208 -0.0784 -0.0386
 4927SOL    HW119706   3.796   0.988   0.898 -2.0291  1.7013  0.6123
 4927SOL    HW219707   3.755   1.057   0.770  1.5069 -0.4706 -1.8855
 4927SOL     MW19708   3.815   1.041   0.831  0.0230  0.0992 -0.1917
 4928SOL     OW19709   3.805   0.146   4.477 -0.1199 -0.1106  0.4291
 4928SOL    HW119710   3.794   0.233   4.515 -0.0938  0.1444 -0.1461
 4928SOL    HW219711   3.780   0.086   4.548 -1.0589  0.3799  0.5341
 4928SOL     MW19712   3.800   0.149   4.491 -0.2367 -0.0152  0.3689
 4929SOL     OW19713   0.078   1.190   2.828 -0.3312 -0.5856 -0.2621
 4929SOL    HW119714   0.059   1.167   2.919 -1.9689 -0.7618 -0.6208
 4929SOL    HW219715   0.173   1.201   2.825 -0.3245  0.2860  1.6749
 4929SOL     MW19716   0.088   1.189   2.839 -0.5400 -0.4966 -0.0601
 4930SOL     OW19717   1.072   2.153   3.934  0.2075 -0.1957 -0.0473
 4930SOL    HW119718   1.091   2.060   3.919  1.4983 -0.2176  1.3877
 4930SOL    HW219719   1.022   2.154   4.016  0.1201  0.3665 -0.1056
 4930SOL     MW19720   1.068   2.141   3.943  0.3615 -0.1265  0.1289
 4931SOL     OW19721   0.189   3.816   4.827  0.0658  0.5018  0.0497
 4931SOL    HW119722   0.111   3.869   4.842  1.5106  2.5174  0.8977
 4931SOL    HW219723   0.201   3.817   4.732 -0.0583  1.5281  0.0380
 4931SOL     MW19724   0.180   3.823   4.816  0.2349  0.8912  0.1567
 4932SOL     OW19725   2.962   0.218   2.553 -0.4584 -0.2660  0.3341
 4932SOL    HW119726   3.030   0.164   2.514  1.3374  1.4842  0.8651
 4932SOL    HW219727   2.926   0.267   2.479 -1.8559 -1.8428 -0.0924
 4932SOL     MW19728   2.966   0.218   2.539 -0.4074 -0.2438  0.3475
 4933SOL     OW19729   0.839   1.586   1.711 -0.9269  0.0299  0.1689
 4933SOL    HW119730   0.763   1.602   1.768  0.0702  1.5541  1.1372
 4933SOL    HW219731   0.831   1.652   1.642  0.0810  0.9680  0.9097
 4933SOL     MW19732   0.828   1.596   1.709 -0.6702  0.3451  0.3877
 4934SOL     OW19733   0.007   2.772   4.695 -0.6049  0.5481  0.8064
 4934SOL    HW119734   0.089   2.764   4.744 -1.8223  0.2437  2.9319
 4934SOL    HW219735  -0.040   2.690   4.714 -1.7945  1.1315  0.4545
 4934SOL     MW19736   0.012   2.760   4.704 -0.9130  0.5838  1.0335
 4935SOL     OW19737   3.014   4.104   3.969  0.0652 -0.1872  0.3070
 4935SOL    HW119738   3.065   4.042   4.021 -0.1892 -0.0399  0.7346
 4935SOL    HW219739   2.962   4.050   3.910 -0.8716 -0.4283  1.3322
 4935SOL     MW19740   3.014   4.089   3.968 -0.0873 -0.1992  0.4930
 4936SOL     OW19741   4.560   1.615   2.288 -0.2933 -0.0084  0.3851
 4936SOL    HW119742   4.559   1.542   2.226 -3.6008  0.5831 -0.4889
 4936SOL    HW219743   4.648   1.651   2.282  0.0342 -1.0350 -2.7223
 4936SOL     MW19744   4.571   1.610   2.279 -0.6748 -0.0641 -0.1246
 4937SOL     OW19745   1.748   3.869   0.281  0.7947  0.0955 -0.0817
 4937SOL    HW119746   1.727   3.846   0.372 -0.5545 -1.3632 -0.7180
 4937SOL    HW219747   1.799   3.795   0.248 -1.0447 -0.7123 -1.2750
 4937SOL     MW19748   1.752   3.857   0.289  0.3865 -0.1947 -0.3160
 4938SOL     OW19749   1.570   3.020   3.751 -0.4837  0.3415 -0.2092
 4938SOL    HW119750   1.582   3.109   3.718  2.6222  0.1409  0.0376
 4938SOL    HW219751   1.520   2.976   3.682 -1.0407  1.9553 -0.8916
 4938SOL     MW19752   1.565   3.026   3.738 -0.1574  0.5224 -0.2649
 4939SOL     OW19753   1.946   1.416   1.591  0.2124  0.6044 -0.3291
 4939SOL    HW119754   2.021   1.475   1.594 -0.4777  1.4953  2.5186
 4939SOL    HW219755   1.924   1.401   1.683 -1.1916 -2.1478 -1.0126
 4939SOL     MW19756   1.953   1.422   1.603 -0.0556  0.3661 -0.0521
 4940SOL     OW19757   3.283   2.309   3.257 -0.1765 -0.4249 -0.4053
 4940SOL    HW119758   3.355   2.347   3.207 -0.5348  0.7469 -0.0672
 4940SOL    HW219759   3.213   2.297   3.193 -0.1510 -0.2701 -0.4621
 4940SOL     MW19760   3.283   2.312   3.242 -0.2191 -0.2551 -0.3693
 4941SOL     OW19761   2.146   4.306   2.351  0.7540  0.4960 -0.1579
 4941SOL    HW119762   2.108   4.394   2.355  0.1450  0.2057  0.9202
 4941SOL    HW219763   2.071   4.248   2.343  1.0033 -0.0273  1.0161
 4941SOL     MW19764   2.132   4.310   2.350  0.7080  0.3919  0.1304
 4942SOL     OW19765   4.353   2.328   4.385 -0.4513  0.3217  0.1701
 4942SOL    HW119766   4.337   2.244   4.341  1.8286  0.4112 -0.9619
 4942SOL    HW219767   4.319   2.394   4.324  0.0602  0.3173 -0.1243
 4942SOL     MW19768   4.347   2.326   4.371 -0.0940  0.3326 -0.0125
 4943SOL     OW19769   0.707   0.430   0.722  0.7425  0.0123 -0.5566
 4943SOL    HW119770   0.672   0.503   0.772  0.6179  0.4087 -1.2149
 4943SOL    HW219771   0.688   0.353   0.776 -1.6479  0.1347 -1.1352
 4943SOL     MW19772   0.700   0.429   0.735  0.4206  0.0787 -0.7150
 4944SOL     OW19773   1.924   5.332   1.485  0.3462 -0.5236 -0.3068
 4944SOL    HW119774   1.864   5.271   1.528 -1.0732  0.1118 -1.3076
 4944SOL    HW219775   1.868   5.403   1.454  1.9311  1.2265  0.6472
 4944SOL     MW19776   1.910   5.333   1.486  0.3674 -0.2182 -0.3128
 4945SOL     OW19777   0.746   4.482   4.267 -0.2417 -0.6875 -0.1661
 4945SOL    HW119778   0.795   4.432   4.332 -0.0740 -1.3499 -0.7751
 4945SOL    HW219779   0.715   4.559   4.313 -1.0942 -1.6814  1.0103
 4945SOL     MW19780   0.748   4.485   4.281 -0.3293 -0.8995 -0.0935
 4946SOL     OW19781   0.169   2.552   2.799  0.0626  0.4977  0.5297
 4946SOL    HW119782   0.084   2.579   2.834 -0.6416  0.5869 -1.1797
 4946SOL    HW219783   0.226   2.627   2.814 -0.4643  0.8840  0.6451
 4946SOL     MW19784   0.165   2.565   2.806 -0.0950  0.5585  0.3257
 4947SOL     OW19785   4.338   5.388   0.957 -0.1569 -0.0051 -0.3850
 4947SOL    HW119786   4.257   5.410   0.911 -0.4393 -2.0434 -0.9529
 4947SOL    HW219787   4.392   5.467   0.949 -1.3959  0.7635 -1.5549
 4947SOL     MW19788   4.335   5.401   0.950 -0.3517 -0.1676 -0.6075
 4948SOL     OW19789   2.367   3.682   5.291  0.0556  0.2225 -0.1029
 4948SOL    HW119790   2.365   3.684   5.387  1.2965  0.2065 -0.0674
 4948SOL    HW219791   2.385   3.591   5.270  1.5460  0.5412 -0.2945
 4948SOL     MW19792   2.369   3.671   5.301  0.4052  0.2612 -0.1229
 4949SOL     OW19793   0.554   4.409   2.126 -0.2349  0.1191  0.0875
 4949SOL    HW119794   0.534   4.475   2.193 -1.1782  0.6996 -0.7356
 4949SOL    HW219795   0.635   4.440   2.086  0.2780 -0.1762  0.8704
 4949SOL     MW19796   0.562   4.422   2.129 -0.2900  0.1556  0.0823
 4950SOL     OW19797   4.360   3.124   0.180  0.6292 -0.1348  0.2790
 4950SOL    HW119798   4.405   3.161   0.256 -0.5529  2.7856 -0.3128
 4950SOL    HW219799   4.417   3.145   0.106  0.3232 -0.2678  0.0025
 4950SOL     MW19800   4.373   3.131   0.180  0.4387  0.2220  0.1678
 4951SOL     OW19801   1.506   0.251   0.326 -0.4284 -0.3428 -0.2186
 4951SOL    HW119802   1.450   0.311   0.376  0.4117  0.5548 -0.3257
 4951SOL    HW219803   1.483   0.268   0.235  0.4970  0.5546 -0.3056
 4951SOL     MW19804   1.496   0.261   0.321 -0.2024 -0.1131 -0.2435
 4952SOL     OW19805   0.705   0.154   0.461  0.0805  0.4264  0.3617
 4952SOL    HW119806   0.625   0.165   0.513 -0.0418 -1.0323  0.5053
 4952SOL    HW219807   0.773   0.139   0.525 -0.1610 -1.9362  0.1399
 4952SOL     MW19808   0.703   0.154   0.476  0.0340 -0.0627  0.3517
 4953SOL     OW19809   1.549   1.535   3.631 -0.3331  0.0371  0.4178
 4953SOL    HW119810   1.556   1.466   3.565 -0.8988 -0.6200  1.0206
 4953SOL    HW219811   1.634   1.578   3.630  0.6081 -1.6873  1.0892
 4953SOL     MW19812   1.561   1.532   3.623 -0.2850 -0.2677  0.5809
 4954SOL     OW19813   4.591   1.904   0.478 -0.0952  0.5115 -0.2558
 4954SOL    HW119814   4.582   1.982   0.533  0.0994  0.1213  0.3470
 4954SOL    HW219815   4.584   1.831   0.540  1.7519  0.0735 -0.4851
 4954SOL     MW19816   4.589   1.905   0.493  0.1662  0.4055 -0.2080
 4955SOL     OW19817   2.293   3.574   4.523 -0.1540  0.2858 -0.5649
 4955SOL    HW119818   2.262   3.495   4.479  1.2225 -1.6624  1.7514
 4955SOL    HW219819   2.335   3.543   4.603  1.1466  3.3215  0.0846
 4955SOL     MW19820   2.294   3.560   4.527  0.1887  0.4250 -0.1853
 4956SOL     OW19821   2.517   4.835   0.909  0.6660 -0.0050  0.0213
 4956SOL    HW119822   2.586   4.785   0.953  1.7559  1.1095 -0.3859
 4956SOL    HW219823   2.449   4.845   0.976  1.0402 -0.8021  0.5443
 4956SOL     MW19824   2.517   4.830   0.924  0.8534  0.0356  0.0361
 4957SOL     OW19825   4.259   0.029   4.557 -0.1851  0.2808 -0.6188
 4957SOL    HW119826   4.277  -0.038   4.623 -1.3681  2.2777  1.9458
 4957SOL    HW219827   4.170   0.010   4.527 -0.8043  1.0161  0.6452
 4957SOL     MW19828   4.250   0.018   4.562 -0.4158  0.6306 -0.1287
 4958SOL     OW19829   0.906   2.732   0.618  0.0594  0.2881  0.6536
 4958SOL    HW119830   0.839   2.800   0.610 -0.5350 -0.2908  0.5770
 4958SOL    HW219831   0.937   2.738   0.709 -1.2765 -0.4914  1.1956
 4958SOL     MW19832   0.901   2.741   0.629 -0.1877  0.1142  0.7132
 4959SOL     OW19833   3.245   0.477   3.625 -0.3444 -0.2908 -0.1613
 4959SOL    HW119834   3.296   0.558   3.615 -1.6608  0.6590  0.5191
 4959SOL    HW219835   3.241   0.463   3.720 -0.9867 -0.5832 -0.2284
 4959SOL     MW19836   3.251   0.486   3.636 -0.5952 -0.2066 -0.0828
 4960SOL     OW19837   2.320   4.045   2.103 -0.3560  0.2327  0.5367
 4960SOL    HW119838   2.232   4.008   2.111  0.2803 -1.4278  0.2804
 4960SOL    HW219839   2.376   3.970   2.084  0.8660  1.4708 -1.0857
 4960SOL     MW19840   2.316   4.031   2.101 -0.1181  0.1786  0.2962
 4961SOL     OW19841   0.736   5.196   0.211  0.0032 -0.0631  0.2276
 4961SOL    HW119842   0.668   5.230   0.268  1.0553  0.2045  1.3417
 4961SOL    HW219843   0.726   5.101   0.217  0.2839 -0.0390  1.0602
 4961SOL     MW19844   0.726   5.188   0.219  0.1738 -0.0258  0.4768
 4962SOL     OW19845   4.312   3.685   2.906 -0.7258 -0.0261  0.0158
 4962SOL    HW119846   4.256   3.703   2.982  0.6174  0.0908  1.0190
 4962SOL    HW219847   4.327   3.772   2.868 -0.3043  0.0998  0.4455
 4962SOL     MW19848   4.307   3.699   2.911 -0.4999  0.0050  0.1992
 4963SOL     OW19849   4.375   5.120   5.103 -0.0814 -0.0436  0.2042
 4963SOL    HW119850   4.460   5.084   5.080  0.5777  0.1819  2.1095
 4963SOL    HW219851   4.332   5.049   5.152 -0.4884  0.2825  0.3223
 4963SOL     MW19852   4.380   5.106   5.107 -0.0491  0.0270  0.4632
 4964SOL     OW19853   2.070   3.610   2.523  0.2187 -0.8983 -0.7367
 4964SOL    HW119854   2.127   3.587   2.449  0.6748 -0.8833 -0.3963
 4964SOL    HW219855   2.126   3.663   2.581 -0.2373 -0.6094 -0.5511
 4964SOL     MW19856   2.085   3.614   2.521  0.2187 -0.8594 -0.6693
 4965SOL     OW19857   3.623   2.118   4.618  0.3855 -0.4196 -0.1983
 4965SOL    HW119858   3.596   2.196   4.569 -0.2566 -0.9968 -0.7927
 4965SOL    HW219859   3.576   2.124   4.701  2.0922  0.9794  0.7473
 4965SOL     MW19860   3.614   2.128   4.622  0.5218 -0.3144 -0.1534
 4966SOL     OW19861   0.978   3.508   5.392 -0.2212  0.2662  0.7376
 4966SOL    HW119862   1.042   3.567   5.431 -0.2586  0.4865  0.4669
 4966SOL    HW219863   1.012   3.490   5.304 -1.0668  1.2373  0.1959
 4966SOL     MW19864   0.991   3.513   5.385 -0.3343  0.4187  0.6336
 4967SOL     OW19865   3.298   5.205   2.150  0.0680 -0.1516 -0.1003
 4967SOL    HW119866   3.211   5.193   2.113  0.2768  2.2024 -1.5772
 4967SOL    HW219867   3.281   5.236   2.239 -0.4637 -3.6452  1.1555
 4967SOL     MW19868   3.284   5.208   2.157  0.0266 -0.2975 -0.1286
 4968SOL     OW19869   2.602   1.364   0.328  0.0287  0.2746  0.1518
 4968SOL    HW119870   2.513   1.343   0.301  0.1979 -0.6731  0.3003
 4968SOL    HW219871   2.656   1.297   0.286  0.3726 -0.7824  2.1651
 4968SOL     MW19872   2.597   1.353   0.319  0.0944  0.0180  0.4285
 4969SOL     OW19873   0.162   4.134   2.903 -0.1204  0.3370 -0.4777
 4969SOL    HW119874   0.220   4.095   2.968  0.3665  1.5392 -0.1527
 4969SOL    HW219875   0.099   4.184   2.955 -0.4638  0.3324 -0.8886
 4969SOL     MW19876   0.161   4.136   2.918 -0.1020  0.4903 -0.4887
 4970SOL     OW19877   1.949   2.655   3.252  0.5873 -0.3400  0.3533
 4970SOL    HW119878   1.999   2.662   3.333  0.2507  1.2304  0.4673
 4970SOL    HW219879   1.858   2.671   3.278  0.6341  1.6354 -0.4814
 4970SOL     MW19880   1.944   2.658   3.266  0.5502  0.1139  0.2611
 4971SOL     OW19881   4.247   3.827   0.044 -0.1569  0.3248  0.1350
 4971SOL    HW119882   4.170   3.796   0.092 -1.7270  1.7491 -1.2962
 4971SOL    HW219883   4.211   3.886  -0.023  2.3350  2.6410  0.6654
 4971SOL     MW19884   4.233   3.831   0.041 -0.0389  0.8036  0.0197
 4972SOL     OW19885   2.711   3.724   2.503 -0.1303 -0.4538 -0.2261
 4972SOL    HW119886   2.792   3.678   2.478  0.2439 -0.3290  0.7363
 4972SOL    HW219887   2.722   3.812   2.467  0.7989 -0.0048  1.1010
 4972SOL     MW19888   2.723   3.729   2.495  0.0365 -0.3804  0.0670
 4973SOL     OW19889   3.088   5.109   2.817  0.2647 -0.3517  0.1155
 4973SOL    HW119890   3.113   5.153   2.899  1.4414  0.3538 -0.5987
 4973SOL    HW219891   3.142   5.150   2.750 -2.1195  0.5847 -1.3945
 4973SOL     MW19892   3.098   5.120   2.819  0.1101 -0.1415 -0.1692
 4974SOL     OW19893   1.058   3.532   3.378 -0.1275  0.2426  0.2068
 4974SOL    HW119894   1.036   3.439   3.383  1.5470 -0.1755  0.4515
 4974SOL    HW219895   1.048   3.554   3.286  0.6166 -0.5001 -0.0648
 4974SOL     MW19896   1.054   3.523   3.367  0.1821  0.0940  0.2033
 4975SOL     OW19897   0.446   1.886   4.861 -0.5001 -0.0956 -0.2901
 4975SOL    HW119898   0.505   1.837   4.917 -1.3711 -0.6164  0.1994
 4975SOL    HW219899   0.503   1.939   4.806  0.3934 -0.2043  0.5123
 4975SOL     MW19900   0.461   1.886   4.861 -0.4972 -0.1762 -0.1247
 4976SOL     OW19901   1.684   3.456   5.384 -0.2428  0.8310 -0.4910
 4976SOL    HW119902   1.617   3.460   5.316  1.0491  1.1060 -1.8172
 4976SOL    HW219903   1.758   3.504   5.347  2.1286 -2.6627 -0.7749
 4976SOL     MW19904   1.685   3.463   5.370  0.2262  0.4190 -0.6971
 4977SOL     OW19905   3.461   2.205   4.810 -0.1675 -0.5942 -0.2335
 4977SOL    HW119906   3.442   2.224   4.901  1.2929  0.5734 -0.1449
 4977SOL    HW219907   3.394   2.252   4.760 -0.0225  0.0595  0.1884
 4977SOL     MW19908   3.450   2.213   4.815  0.0380 -0.3611 -0.1682
 4978SOL     OW19909   2.160   0.243   0.642 -0.1863  0.7366  0.0736
 4978SOL    HW119910   2.253   0.235   0.618 -0.5649  0.4664 -1.4100
 4978SOL    HW219911   2.137   0.158   0.678 -0.5720 -0.3044 -2.3831
 4978SOL     MW19912   2.169   0.231   0.643 -0.2841  0.5688 -0.4308
 4979SOL     OW19913   3.938   3.391   2.921 -0.3810  0.2400  0.1400
 4979SOL    HW119914   4.005   3.416   2.985 -0.8147  0.8340  0.3692
 4979SOL    HW219915   3.980   3.404   2.836  0.5033 -1.3889  0.2834
 4979SOL     MW19916   3.952   3.395   2.919 -0.3233  0.1075  0.1877
 4980SOL     OW19917   2.406   2.463   4.767  0.3996  0.0434 -0.8414
 4980SOL    HW119918   2.364   2.509   4.695  0.6416 -0.8787 -1.5854
 4980SOL    HW219919   2.487   2.512   4.782  0.9836 -0.5118 -2.0739
 4980SOL     MW19920   2.411   2.475   4.760  0.5053 -0.1457 -1.0944
 4981SOL     OW19921   1.399   0.178   4.264 -0.0344 -0.4830 -0.1591
 4981SOL    HW119922   1.431   0.187   4.174  0.6891  2.3338  0.2830
 4981SOL    HW219923   1.322   0.121   4.256 -0.6385  0.5291 -2.7414
 4981SOL     MW19924   1.393   0.172   4.251 -0.0191  0.0072 -0.4331
 4982SOL     OW19925   1.797   5.296   4.002  0.0723 -0.0072  0.1599
 4982SOL    HW119926   1.747   5.315   3.923  0.7823 -1.4445 -0.6805
 4982SOL    HW219927   1.887   5.319   3.980  0.3385 -0.7711  0.3919
 4982SOL     MW19928   1.802   5.301   3.989  0.1973 -0.2890  0.0820
 4983SOL     OW19929   0.994   1.920   1.911 -0.1883 -0.3004  0.2629
 4983SOL    HW119930   0.900   1.931   1.928 -0.5869 -0.2405 -1.7910
 4983SOL    HW219931   1.005   1.827   1.892 -0.1885  0.0135 -1.3745
 4983SOL     MW19932   0.983   1.910   1.911 -0.2393 -0.2525 -0.2096
 4984SOL     OW19933   3.179   3.157   4.508  0.0557  0.3017  0.4673
 4984SOL    HW119934   3.236   3.162   4.432 -0.1753 -0.9596  0.1796
 4984SOL    HW219935   3.134   3.072   4.498  1.2693 -0.7118  2.8803
 4984SOL     MW19936   3.180   3.147   4.497  0.1815  0.0105  0.7394
 4985SOL     OW19937   0.318   1.913   5.427  0.2578 -0.1241 -0.2579
 4985SOL    HW119938   0.324   1.925   5.332  0.6949  0.4110 -0.1623
 4985SOL    HW219939   0.396   1.954   5.462  1.2652 -2.2860  0.1828
 4985SOL     MW19940   0.329   1.920   5.419  0.4427 -0.3323 -0.1893
 4986SOL     OW19941   1.192   4.855   4.570 -0.1878  0.1909 -0.2377
 4986SOL    HW119942   1.115   4.909   4.553 -0.2327  0.2555  0.1522
 4986SOL    HW219943   1.181   4.827   4.661 -0.3838 -0.8246 -0.5679
 4986SOL     MW19944   1.181   4.858   4.580 -0.2187  0.0692 -0.2301
 4987SOL     OW19945   4.196   0.283   0.770 -0.1583 -0.6904  0.3133
 4987SOL    HW119946   4.156   0.294   0.684  1.1597  0.2310 -0.2162
 4987SOL    HW219947   4.166   0.358   0.821  1.4181  0.4389 -0.3308
 4987SOL     MW19948   4.187   0.294   0.765  0.2122 -0.4279  0.1631
 4988SOL     OW19949   3.765   3.605   2.857 -0.0222 -0.0681  0.0396
 4988SOL    HW119950   3.834   3.662   2.823 -1.1713 -0.6486 -3.6861
 4988SOL    HW219951   3.809   3.521   2.872  0.4465  0.0870 -0.4260
 4988SOL     MW19952   3.780   3.602   2.855 -0.1093 -0.1225 -0.4969
 4989SOL     OW19953   0.453   4.027   2.487 -0.6593  0.1711 -0.6985
 4989SOL    HW119954   0.446   4.069   2.573 -1.4567 -0.3210 -0.5128
 4989SOL    HW219955   0.365   4.032   2.451 -0.8796 -1.7043 -0.4905
 4989SOL     MW19956   0.441   4.033   2.494 -0.7896 -0.1320 -0.6481
 4990SOL     OW19957   4.571   2.090   1.422  0.0702 -0.2853  0.3502
 4990SOL    HW119958   4.495   2.146   1.440  0.9863  0.6040  1.6250
 4990SOL    HW219959   4.621   2.091   1.503  2.1094  0.1934 -0.8396
 4990SOL     MW19960   4.568   2.097   1.434  0.4485 -0.1102  0.3611
 4991SOL     OW19961   1.571   2.435   0.972 -0.1796  0.3960  0.1059
 4991SOL    HW119962   1.639   2.492   0.938  0.6986 -0.7530 -0.1147
 4991SOL    HW219963   1.551   2.470   1.059  0.8519  0.6190  0.2653
 4991SOL     MW19964   1.577   2.447   0.979  0.0649  0.2775  0.0981
 4992SOL     OW19965   1.451   3.191   1.167 -0.0315 -0.5178  0.2012
 4992SOL    HW119966   1.522   3.170   1.107 -1.2965 -0.1570 -1.4873
 4992SOL    HW219967   1.478   3.273   1.208  0.9693 -0.9009  0.3325
 4992SOL     MW19968   1.464   3.199   1.165 -0.0653 -0.5206  0.0019
 4993SOL     OW19969   0.431   1.440   4.839 -0.0055  0.1311 -0.0676
 4993SOL    HW119970   0.366   1.509   4.844 -0.4183 -0.3098  0.8206
 4993SOL    HW219971   0.381   1.362   4.816  0.4325  0.0808 -0.8933
 4993SOL     MW19972   0.416   1.439   4.836 -0.0023  0.0682 -0.0596
 4994SOL     OW19973   4.856   1.888   2.068  0.1380 -0.5275  0.1887
 4994SOL    HW119974   4.842   1.974   2.027  1.1876 -0.2019  0.4763
 4994SOL    HW219975   4.852   1.826   1.995 -1.9360 -0.4102  0.1477
 4994SOL     MW19976   4.854   1.891   2.053  0.0068 -0.4708  0.2203
 4995SOL     OW19977   1.774   3.096   1.274  0.4693  0.3466 -0.2111
 4995SOL    HW119978   1.710   3.060   1.213  0.1379  0.5311  0.0279
 4995SOL    HW219979   1.747   3.063   1.360  0.6944  0.4250 -0.1089
 4995SOL     MW19980   1.762   3.087   1.277  0.4557  0.3802 -0.1674
 4996SOL     OW19981   3.453   4.258   0.285  0.3847 -0.2699 -0.4089
 4996SOL    HW119982   3.402   4.330   0.249  0.5785  0.4336  0.6740
 4996SOL    HW219983   3.394   4.216   0.348  0.4846 -0.6630 -0.5746
 4996SOL     MW19984   3.439   4.262   0.289  0.4223 -0.2301 -0.2915
 4997SOL     OW19985   2.982   5.394   4.047  0.0345  0.1505  0.7643
 4997SOL    HW119986   2.991   5.485   4.074  0.9992 -0.0327  1.1035
 4997SOL    HW219987   3.031   5.389   3.964 -0.9708  0.1880  0.1542
 4997SOL     MW19988   2.990   5.405   4.040  0.0293  0.1318  0.7296
 4998SOL     OW19989   1.384   3.300   3.864  0.0008  0.4410 -0.1186
 4998SOL    HW119990   1.360   3.237   3.932  0.9904  1.3929  1.1542
 4998SOL    HW219991   1.313   3.365   3.865 -0.9310 -0.5136 -1.3118
 4998SOL     MW19992   1.372   3.300   3.873  0.0082  0.4406 -0.1084
 4999SOL     OW19993   0.787   4.449   1.954  0.3286  0.0845 -0.1796
 4999SOL    HW119994   0.857   4.456   1.890  1.2991 -2.1302  0.5340
 4999SOL    HW219995   0.752   4.360   1.943 -0.6507  0.2582  1.1777
 4999SOL     MW19996   0.791   4.438   1.945  0.3274 -0.1768  0.0855
 5000SOL     OW19997   1.837   4.627   3.833  0.5948  0.0862 -0.2078
 5000SOL    HW119998   1.894   4.674   3.894 -0.7907  0.2622  0.9983
 5000SOL    HW219999   1.755   4.615   3.881 -0.2997 -0.4006 -1.7899
 5000SOL     MW20000   1.834   4.632   3.847  0.3030  0.0464 -0.2559
 5001SOL     OW20001   2.268   2.518   4.520 -0.3675  0.5152  0.1656
 5001SOL    HW120002   2.349   2.557   4.484 -0.7858  1.0774 -0.1934
 5001SOL    HW220003   2.226   2.590   4.567 -0.1011 -0.0771  1.3360
 5001SOL     MW20004   2.273   2.532   4.521 -0.3870  0.5114  0.2695
 5002SOL     OW20005   2.502   1.482   2.394 -0.2267  0.0060  0.2686
 5002SOL    HW120006   2.544   1.410   2.348  0.2305  1.0596 -1.0356
 5002SOL    HW220007   2.569   1.550   2.399 -1.1988  1.0527 -0.2717
 5002SOL     MW20008   2.516   1.482   2.389 -0.2926  0.2749  0.0325
 5003SOL     OW20009   2.214   1.081   3.663  0.2906 -0.3921 -1.1117
 5003SOL    HW120010   2.215   1.159   3.609 -0.0626  0.3266 -0.0965
 5003SOL    HW220011   2.132   1.085   3.712  0.6505 -0.9573 -0.4279
 5003SOL     MW20012   2.204   1.091   3.663  0.2914 -0.3725 -0.8942
 5004SOL     OW20013   1.434   3.631   2.926 -0.4062  0.1767  0.0467
 5004SOL    HW120014   1.454   3.611   3.017 -1.7592 -0.9943  0.1275
 5004SOL    HW220015   1.345   3.598   2.913 -0.7108  1.4263 -1.3707
 5004SOL     MW20016   1.425   3.624   2.936 -0.6184  0.1868 -0.1244
 5005SOL     OW20017   1.772   4.128   3.816 -0.2099  0.0837 -0.1692
 5005SOL    HW120018   1.707   4.194   3.836 -1.0359 -0.2035 -1.7701
 5005SOL    HW220019   1.778   4.076   3.896  0.9712  2.4300  1.3852
 5005SOL     MW20020   1.765   4.130   3.829 -0.1645  0.3473 -0.1752
 5006SOL     OW20021   2.023   0.799   0.217  0.0565  0.2851 -0.4668
 5006SOL    HW120022   1.928   0.804   0.212 -0.0310  2.1639  1.2928
 5006SOL    HW220023   2.054   0.851   0.143 -0.3253  0.7183 -0.3274
 5006SOL     MW20024   2.015   0.806   0.207 -0.0036  0.5810 -0.2237
 5007SOL     OW20025   2.466   0.759   1.505  0.1059  0.5010  0.2500
 5007SOL    HW120026   2.437   0.668   1.516  1.0473  0.2310  0.6433
 5007SOL    HW220027   2.541   0.767   1.563  0.9651  1.0782 -0.8919
 5007SOL     MW20028   2.472   0.748   1.514  0.3364  0.5404  0.1542
 5008SOL     OW20029   1.800   1.593   4.368 -0.1215  0.1993  0.6624
 5008SOL    HW120030   1.855   1.629   4.298  0.3198  0.1641  0.9880
 5008SOL    HW220031   1.788   1.501   4.345  0.4330  0.0685  0.8874
 5008SOL     MW20032   1.806   1.586   4.356  0.0060  0.1780  0.7329
 5009SOL     OW20033   4.073   5.416   0.525  0.6340 -0.0032  0.4381
 5009SOL    HW120034   4.000   5.355   0.532  0.1079  0.6965  1.1262
 5009SOL    HW220035   4.085   5.450   0.613  0.3842  1.4970 -0.0657
 5009SOL     MW20036   4.065   5.413   0.537  0.5347  0.2784  0.4617
 5010SOL     OW20037   3.510   2.294   2.081  0.2562 -0.3964  0.3189
 5010SOL    HW120038   3.552   2.363   2.030 -0.7002 -0.2649 -0.3206
 5010SOL    HW220039   3.581   2.234   2.103  0.8646  0.0861 -0.2918
 5010SOL     MW20040   3.525   2.295   2.077  0.2116 -0.3178  0.1588
 5011SOL     OW20041   1.647   1.746   0.974 -0.2139 -0.1507  0.5490
 5011SOL    HW120042   1.591   1.754   0.897  0.5164 -1.3974 -0.1512
 5011SOL    HW220043   1.616   1.668   1.019 -1.0436  0.9223  1.9033
 5011SOL     MW20044   1.636   1.737   0.970 -0.2266 -0.1730  0.6327
 5012SOL     OW20045   5.289   1.419   1.238  0.4491 -0.1822 -0.5104
 5012SOL    HW120046   5.279   1.513   1.253  1.2980 -0.3033  1.0034
 5012SOL    HW220047   5.282   1.410   1.143 -0.7809  1.2487 -0.6069
 5012SOL     MW20048   5.287   1.430   1.228  0.4003 -0.0146 -0.3290
 5013SOL     OW20049   4.390   1.352   4.364  0.1633 -0.4544 -1.0194
 5013SOL    HW120050   4.381   1.272   4.416 -1.2174 -0.2272 -0.8606
 5013SOL    HW220051   4.316   1.351   4.304  0.2005  0.6305 -1.1164
 5013SOL     MW20052   4.379   1.342   4.363 -0.0087 -0.2865 -1.0115
 5014SOL     OW20053   3.043   4.934   4.267  0.0849  0.0213 -0.2964
 5014SOL    HW120054   2.964   4.952   4.317 -0.0205  0.2346 -0.5392
 5014SOL    HW220055   3.022   4.961   4.178  0.3356 -0.1821 -0.4195
 5014SOL     MW20056   3.030   4.940   4.262  0.1035  0.0226 -0.3432
 5015SOL     OW20057   0.050   0.850   3.427 -0.6515 -0.2828 -0.1711
 5015SOL    HW120058   0.042   0.817   3.338 -0.5637 -0.6351 -0.0490
 5015SOL    HW220059   0.124   0.801   3.464 -1.1316 -0.6419  0.3183
 5015SOL     MW20060   0.059   0.840   3.420 -0.7017 -0.3739 -0.0928
 5016SOL     OW20061   2.147   0.295   1.333 -0.3098  0.1622  0.3367
 5016SOL    HW120062   2.201   0.374   1.344  2.0992 -1.6297  2.9044
 5016SOL    HW220063   2.059   0.323   1.356  0.0034  2.5433 -0.9722
 5016SOL     MW20064   2.143   0.309   1.337  0.0387  0.2376  0.4978
 5017SOL     OW20065   2.884   1.199   1.824 -0.1463 -0.0104 -0.2617
 5017SOL    HW120066   2.832   1.274   1.851  1.1792  0.9618 -0.2621
 5017SOL    HW220067   2.975   1.227   1.837  0.4251 -1.0850 -1.6377
 5017SOL     MW20068   2.889   1.212   1.829  0.0966 -0.0235 -0.4379
 5018SOL     OW20069   0.060   0.633   4.438 -0.7099 -0.3101 -0.3585
 5018SOL    HW120070  -0.013   0.667   4.488 -0.6254  1.3511 -1.2776
 5018SOL    HW220071   0.112   0.710   4.415  0.0249 -1.1617 -1.7554
 5018SOL     MW20072   0.057   0.647   4.441 -0.6050 -0.2065 -0.6550
 5019SOL     OW20073   5.103   4.604   0.664 -0.2329  0.3293 -0.0745
 5019SOL    HW120074   5.092   4.634   0.574  2.4319  1.5490 -0.1097
 5019SOL    HW220075   5.155   4.524   0.656  2.0364  1.6414  0.3245
 5019SOL     MW20076   5.108   4.598   0.651  0.3987  0.6534 -0.0280
 5020SOL     OW20077   5.249   3.993   3.891  0.3891  0.2999  0.0940
 5020SOL    HW120078   5.283   4.021   3.806 -0.0256  0.0580 -0.1557
 5020SOL    HW220079   5.307   4.034   3.955  1.0934 -0.0438 -0.3212
 5020SOL     MW20080   5.261   4.002   3.889  0.4262  0.2249  0.0089
 5021SOL     OW20081   1.111   2.203   2.417 -0.6418  0.4447  0.3831
 5021SOL    HW120082   1.017   2.200   2.433 -0.8042  0.3991 -0.5617
 5021SOL    HW220083   1.143   2.118   2.446 -1.1573 -0.1987 -0.8969
 5021SOL     MW20084   1.103   2.192   2.423 -0.7286  0.3565  0.0983
 5022SOL     OW20085   3.377   0.048   4.691  0.1131  0.5675  0.3760
 5022SOL    HW120086   3.467   0.045   4.658  0.4204  0.2539  1.2254
 5022SOL    HW220087   3.343  -0.041   4.676 -0.1204  0.7266 -0.0864
 5022SOL     MW20088   3.384   0.036   4.685  0.1226  0.5477  0.4255
 5023SOL     OW20089   2.693   1.443   1.522  0.1816  0.1586  0.3197
 5023SOL    HW120090   2.740   1.361   1.511 -0.0901  0.0291  0.0998
 5023SOL    HW220091   2.747   1.494   1.582 -0.3838 -0.7809  1.6785
 5023SOL     MW20092   2.706   1.439   1.528  0.0745  0.0218  0.4655
 5024SOL     OW20093   3.103   1.009   0.634  0.0668  0.0317 -0.3710
 5024SOL    HW120094   3.101   0.926   0.587 -2.7063 -0.2272 -0.0035
 5024SOL    HW220095   3.032   1.002   0.698  0.1281  2.4603  0.0747
 5024SOL     MW20096   3.093   0.998   0.636 -0.2803  0.3094 -0.2669
 5025SOL     OW20097   0.934   1.072   4.169 -0.5371 -0.0442  0.0645
 5025SOL    HW120098   0.931   0.977   4.181  0.5666 -0.0585  0.4050
 5025SOL    HW220099   0.908   1.086   4.078  2.1489 -0.9694 -0.9626
 5025SOL     MW20100   0.931   1.061   4.159 -0.0520 -0.1644 -0.0234
 5026SOL     OW20101   3.851   1.867   0.362  0.1209  0.2146  0.1156
 5026SOL    HW120102   3.906   1.794   0.333  1.1948  1.4513 -1.1170
 5026SOL    HW220103   3.794   1.885   0.286 -1.1728 -0.2541  0.9369
 5026SOL     MW20104   3.850   1.860   0.348  0.0927  0.3129  0.0630
 5027SOL     OW20105   0.231   0.684   4.653 -0.2762  0.1143  0.1778
 5027SOL    HW120106   0.158   0.645   4.604 -0.6537 -1.3201  1.7708
 5027SOL    HW220107   0.293   0.611   4.664  0.4202  0.7671  0.6585
 5027SOL     MW20108   0.230   0.669   4.648 -0.2354  0.0143  0.4433
 5028SOL     OW20109   4.865   4.187   0.565  0.9768  0.1372 -0.0612
 5028SOL    HW120110   4.776   4.173   0.532 -0.2360  0.7759  2.6465
 5028SOL    HW220111   4.864   4.154   0.655  3.6728 -0.3477 -0.1132
 5028SOL     MW20112   4.854   4.181   0.573  1.1667  0.1569  0.2788
 5029SOL     OW20113   0.520   1.620   5.041 -0.1006  0.1559  0.5768
 5029SOL    HW120114   0.479   1.546   4.995  0.5151 -0.1051  0.4403
 5029SOL    HW220115   0.508   1.599   5.134 -1.5418  0.7936  0.5535
 5029SOL     MW20116   0.513   1.608   5.047 -0.2063  0.2041  0.5564
 5030SOL     OW20117   2.437   4.402   0.793  0.0976 -0.0310 -0.2303
 5030SOL    HW120118   2.394   4.387   0.709  1.2097 -1.2745 -0.6222
 5030SOL    HW220119   2.527   4.423   0.771  0.5538 -0.9458  0.6541
 5030SOL     MW20120   2.443   4.403   0.780  0.2984 -0.3073 -0.1673
 5031SOL     OW20121   3.447   5.359   0.328  0.1494 -0.1277 -0.4429
 5031SOL    HW120122   3.419   5.448   0.304  0.3052 -0.2773 -1.2096
 5031SOL    HW220123   3.365   5.312   0.344  0.0436  0.0079 -0.5815
 5031SOL     MW20124   3.433   5.365   0.327  0.1558 -0.1295 -0.5588
 5032SOL     OW20125   2.290   3.951   1.306  0.4486 -0.0219 -0.1251
 5032SOL    HW120126   2.331   3.954   1.220 -0.1353  1.3584 -0.3767
 5032SOL    HW220127   2.197   3.936   1.287  0.6159 -2.0359  0.3893
 5032SOL     MW20128   2.283   3.949   1.293  0.3952 -0.1030 -0.0915
 5033SOL     OW20129   2.166   3.453   1.241 -0.3268 -0.0882  0.1200
 5033SOL    HW120130   2.198   3.383   1.298 -1.5227  0.0647  1.0295
 5033SOL    HW220131   2.073   3.435   1.231 -0.2745  0.2891 -1.2452
 5033SOL     MW20132   2.158   3.442   1.247 -0.4732 -0.0203  0.0617
 5034SOL     OW20133   2.022   2.538   5.296 -0.1232  0.2067  0.1613
 5034SOL    HW120134   2.001   2.444   5.290 -0.0494  0.2245 -4.8857
 5034SOL    HW220135   2.116   2.540   5.312  0.0902 -0.6870 -0.8342
 5034SOL     MW20136   2.031   2.526   5.297 -0.0865  0.0946 -0.6122
 5035SOL     OW20137   4.784   2.451   3.189  0.2121 -0.1469  0.0688
 5035SOL    HW120138   4.819   2.416   3.271  0.7216  2.2200  0.9248
 5035SOL    HW220139   4.861   2.459   3.132  0.0585 -0.5760 -0.2075
 5035SOL     MW20140   4.798   2.448   3.192  0.2576  0.1012  0.1430
 5036SOL     OW20141   0.966   5.167   2.782 -0.7812  0.4204  0.9115
 5036SOL    HW120142   1.022   5.182   2.857  0.3066 -0.9021  0.4074
 5036SOL    HW220143   1.022   5.123   2.718 -2.1919 -0.3156  0.1186
 5036SOL     MW20144   0.980   5.163   2.783 -0.8225  0.1569  0.7454
 5037SOL     OW20145   2.479   1.067   1.058 -0.3105  0.3257 -0.3132
 5037SOL    HW120146   2.572   1.064   1.036 -0.0282 -0.1350  0.8343
 5037SOL    HW220147   2.467   1.151   1.100 -0.2313  0.0618  0.2463
 5037SOL     MW20148   2.489   1.077   1.060 -0.2642  0.2330 -0.0947
 5038SOL     OW20149   5.334   3.701   4.371 -0.1051  0.3130 -0.1762
 5038SOL    HW120150   5.251   3.748   4.371  0.2249  0.9070 -0.2723
 5038SOL    HW220151   5.401   3.769   4.370  0.3953 -0.1492  0.3852
 5038SOL     MW20152   5.332   3.715   4.371  0.0012  0.3299 -0.1166
 5039SOL     OW20153   4.469   0.148   4.990 -0.0440  0.0854  0.0822
 5039SOL    HW120154   4.440   0.163   4.900 -0.3710 -1.3249 -0.0750
 5039SOL    HW220155   4.474   0.053   4.997  3.7470  0.1486  0.3396
 5039SOL     MW20156   4.466   0.138   4.979  0.3994 -0.0871  0.0950
 5040SOL     OW20157   1.141   0.913   3.655 -0.6209  0.4304  0.3738
 5040SOL    HW120158   1.082   0.856   3.704 -0.2440  1.2218  1.7736
 5040SOL    HW220159   1.211   0.934   3.716 -0.3241  1.7496 -0.3864
 5040SOL     MW20160   1.142   0.908   3.669 -0.5347  0.7006  0.4557
 5041SOL     OW20161   0.285   4.988   3.653 -0.3136  0.3495 -0.4200
 5041SOL    HW120162   0.242   4.978   3.738 -0.0069  1.2232 -0.1542
 5041SOL    HW220163   0.335   4.907   3.642  0.4703  0.6539  0.7205
 5041SOL     MW20164   0.286   4.976   3.662 -0.1740  0.5003 -0.2400
 5042SOL     OW20165   1.738   1.749   5.148  0.0750  0.1720 -0.3722
 5042SOL    HW120166   1.696   1.677   5.102 -0.6780  0.8536 -0.7851
 5042SOL    HW220167   1.754   1.715   5.236  0.6981 -0.8358 -0.8603
 5042SOL     MW20168   1.735   1.736   5.154  0.0583  0.1303 -0.4876
 5043SOL     OW20169   2.984   1.703   2.765  0.1361  0.9801  0.2347
 5043SOL    HW120170   3.078   1.686   2.773  0.1689  0.8878 -0.2939
 5043SOL    HW220171   2.946   1.666   2.845  0.1409 -2.0228 -1.0379
 5043SOL     MW20172   2.991   1.696   2.776  0.1409  0.5839  0.0041
 5044SOL     OW20173   0.835   2.730   0.161 -0.0722 -0.3735 -0.3418
 5044SOL    HW120174   0.764   2.729   0.225 -0.1195  0.9935 -0.3349
 5044SOL    HW220175   0.915   2.728   0.213 -0.0213 -3.2338 -0.3736
 5044SOL     MW20176   0.836   2.730   0.176 -0.0717 -0.5646 -0.3450
 5045SOL     OW20177   2.207   2.224   0.742  0.1876  0.5330  0.4141
 5045SOL    HW120178   2.288   2.217   0.692 -0.3842 -1.6283 -0.3189
 5045SOL    HW220179   2.230   2.198   0.831  0.4047  0.5357  0.3581
 5045SOL     MW20180   2.220   2.220   0.747  0.1422  0.2567  0.3131
 5046SOL     OW20181   2.414   1.027   4.095 -0.1618 -0.2552  0.1052
 5046SOL    HW120182   2.451   1.042   4.007  0.3821  0.0597  0.3788
 5046SOL    HW220183   2.359   1.104   4.111  1.3344  0.7160  0.8431
 5046SOL     MW20184   2.412   1.039   4.086  0.0994 -0.0906  0.2347
 5047SOL     OW20185   4.397   2.529   1.119 -0.0947 -0.3999  0.2832
 5047SOL    HW120186   4.356   2.605   1.161 -0.4429 -1.1973  1.4268
 5047SOL    HW220187   4.334   2.501   1.053  0.2308  0.5574 -0.4601
 5047SOL     MW20188   4.384   2.535   1.116 -0.0976 -0.3794  0.3344
 5048SOL     OW20189   2.266   3.185   1.761 -0.0733  0.3685 -0.4962
 5048SOL    HW120190   2.289   3.227   1.844  0.7335 -0.3112 -0.3562
 5048SOL    HW220191   2.296   3.094   1.771  1.3046  0.6084 -2.0255
 5048SOL     MW20192   2.273   3.179   1.773  0.2064  0.3122 -0.6741
 5049SOL     OW20193   3.204   1.694   0.093 -0.5513  0.4316  0.4926
 5049SOL    HW120194   3.138   1.735   0.149 -2.1253  0.1524 -1.0755
 5049SOL    HW220195   3.172   1.605   0.079  0.0921  0.3197 -0.3909
 5049SOL     MW20196   3.191   1.688   0.098 -0.6705  0.3815  0.1788
 5050SOL     OW20197   4.504   3.958   4.470 -0.3145 -0.2460  0.3523
 5050SOL    HW120198   4.556   3.883   4.500  0.3909  0.0784 -0.0517
 5050SOL    HW220199   4.466   3.930   4.387  0.7427  0.1828 -0.2909
 5050SOL     MW20200   4.506   3.945   4.463 -0.0889 -0.1496  0.2182
 5051SOL     OW20201   4.888   4.448   0.437  0.0013 -0.3287  0.3843
 5051SOL    HW120202   4.863   4.416   0.350 -0.0945 -0.5206  0.4827
 5051SOL    HW220203   4.886   4.371   0.493  0.2423 -0.2375  0.5191
 5051SOL     MW20204   4.884   4.434   0.433  0.0199 -0.3416  0.4142
 5052SOL     OW20205   0.906   4.987   4.250  0.6893  0.1929 -0.2859
 5052SOL    HW120206   0.889   5.081   4.241  0.7761  0.1069 -1.3860
 5052SOL    HW220207   0.998   4.977   4.226  0.5048 -0.2635 -0.8006
 5052SOL     MW20208   0.916   4.998   4.246  0.6768  0.1235 -0.4926
 5053SOL     OW20209   5.430   2.266   3.066  0.5290  0.1903 -0.3572
 5053SOL    HW120210   5.370   2.228   3.130  0.4597  0.7426 -0.0896
 5053SOL    HW220211   5.506   2.294   3.117  0.0046  1.6573 -0.3205
 5053SOL     MW20212   5.432   2.265   3.081  0.4530  0.4488 -0.3182
 5054SOL     OW20213   1.106   1.473   2.027  0.8814 -0.1950 -0.3176
 5054SOL    HW120214   1.106   1.409   1.955 -1.5379 -0.8262  0.1533
 5054SOL    HW220215   1.092   1.557   1.984 -0.7854 -0.5968 -0.6094
 5054SOL     MW20216   1.104   1.475   2.012  0.3583 -0.3273 -0.2947
 5055SOL     OW20217   0.684   4.294   0.524 -0.4625 -0.0063  0.3064
 5055SOL    HW120218   0.711   4.297   0.616  0.4020  2.0522  0.0334
 5055SOL    HW220219   0.764   4.273   0.476 -0.2320  1.8820 -0.1801
 5055SOL     MW20220   0.698   4.291   0.530 -0.3224  0.4989  0.2092
 5056SOL     OW20221   1.417   1.310   4.810  0.0112 -0.5466  0.4711
 5056SOL    HW120222   1.483   1.342   4.871 -0.9789  1.6410  0.4950
 5056SOL    HW220223   1.431   1.216   4.806  1.8528 -0.3838  1.9580
 5056SOL     MW20224   1.427   1.302   4.817  0.1202 -0.2457  0.6645
 5057SOL     OW20225   2.449   3.797   1.620 -0.0757  0.1765  0.1270
 5057SOL    HW120226   2.498   3.876   1.643 -0.6629  1.0207 -1.4099
 5057SOL    HW220227   2.378   3.793   1.684  0.0966  0.7472  0.3603
 5057SOL     MW20228   2.446   3.806   1.631 -0.1288  0.3576 -0.0398
 5058SOL     OW20229   3.628   5.254   5.248 -0.4249  0.1464 -0.0291
 5058SOL    HW120230   3.552   5.215   5.204 -1.0387  0.8487  0.3666
 5058SOL    HW220231   3.639   5.201   5.327 -1.9444  1.3720  1.0711
 5058SOL     MW20232   3.619   5.242   5.253 -0.6980  0.3932  0.1624
 5059SOL     OW20233   0.696   4.206   3.884 -0.7667 -0.4570 -0.6340
 5059SOL    HW120234   0.640   4.254   3.822  0.6292 -0.0042 -1.6027
 5059SOL    HW220235   0.736   4.137   3.831 -0.9632 -1.2449  0.2213
 5059SOL     MW20236   0.694   4.203   3.869 -0.6132 -0.4999 -0.6485
 5060SOL     OW20237   3.402   3.507   5.407  0.2763  0.0467 -0.2756
 5060SOL    HW120238   3.437   3.469   5.488  0.4761  1.3043  0.2552
 5060SOL    HW220239   3.419   3.601   5.415  0.2456  0.2045 -1.7638
 5060SOL     MW20240   3.409   3.514   5.419  0.2980  0.2279 -0.3982
 5061SOL     OW20241   0.912   2.063   0.208 -0.3363 -0.2142 -0.0766
 5061SOL    HW120242   0.993   2.045   0.257 -0.0628  0.7837 -0.1383
 5061SOL    HW220243   0.942   2.086   0.120 -0.3965  3.1903  0.6577
 5061SOL     MW20244   0.926   2.064   0.203 -0.3090  0.3493  0.0095
 5062SOL     OW20245   2.675   2.016   4.513 -0.1071 -0.0720 -0.4186
 5062SOL    HW120246   2.717   1.931   4.527  0.7132  0.5665  1.2083
 5062SOL    HW220247   2.739   2.079   4.544 -0.8916  1.1360 -1.1922
 5062SOL     MW20248   2.689   2.013   4.519 -0.1025  0.1644 -0.3094
 5063SOL     OW20249   3.250   2.142   3.910 -0.4142 -0.4397  0.2225
 5063SOL    HW120250   3.307   2.211   3.946 -0.4198 -0.1135 -0.3835
 5063SOL    HW220251   3.212   2.100   3.987 -1.4744  1.1285  0.6064
 5063SOL     MW20252   3.252   2.146   3.924 -0.5506 -0.1972  0.1941
 5064SOL     OW20253   2.437   1.674   3.439  0.5749  0.5520  0.0866
 5064SOL    HW120254   2.491   1.596   3.457 -0.8073 -0.5866 -0.5276
 5064SOL    HW220255   2.421   1.671   3.345 -2.8415 -0.7571  0.5826
 5064SOL     MW20256   2.442   1.663   3.430 -0.0394  0.2387  0.0715
 5065SOL     OW20257   1.608   4.831   2.262 -0.2062 -0.3254 -0.1801
 5065SOL    HW120258   1.647   4.828   2.175 -0.5757 -1.1388 -0.3262
 5065SOL    HW220259   1.594   4.739   2.286 -1.0935 -0.0848  0.2870
 5065SOL     MW20260   1.611   4.819   2.254 -0.3671 -0.3987 -0.1390
 5066SOL     OW20261   4.417   5.090   1.411 -0.2210 -0.3411  0.2962
 5066SOL    HW120262   4.344   5.150   1.396 -0.8251 -0.1803  3.1831
 5066SOL    HW220263   4.495   5.146   1.410 -0.3579 -0.1539 -0.6344
 5066SOL     MW20264   4.418   5.105   1.409 -0.3158 -0.2966  0.5466
 5067SOL     OW20265   5.035   4.372   2.839 -0.2767 -0.5388 -0.5560
 5067SOL    HW120266   4.955   4.345   2.794 -1.8378  3.0893 -0.3571
 5067SOL    HW220267   5.013   4.368   2.932 -0.4664  0.8589 -0.5104
 5067SOL     MW20268   5.022   4.368   2.845 -0.5008  0.1045 -0.5247
 5068SOL     OW20269   4.786   2.443   2.420 -0.2669  0.0596  0.3491
 5068SOL    HW120270   4.697   2.452   2.454 -0.6803  1.4383 -1.0066
 5068SOL    HW220271   4.809   2.530   2.388  0.9574 -0.6378 -0.7746
 5068SOL     MW20272   4.778   2.455   2.420 -0.1631  0.1468  0.0317
 5069SOL     OW20273   2.154   4.536   1.479  0.0550  0.3766  0.0032
 5069SOL    HW120274   2.181   4.617   1.435  1.8625 -0.4310 -0.4905
 5069SOL    HW220275   2.236   4.494   1.504 -0.8831 -0.2562  2.2494
 5069SOL     MW20276   2.168   4.541   1.477  0.1663  0.1922  0.2275
 5070SOL     OW20277   2.880   3.599   0.393  0.0944  0.2299 -0.2398
 5070SOL    HW120278   2.817   3.648   0.340  0.5817  1.0039 -0.1024
 5070SOL    HW220279   2.889   3.515   0.347  1.3711  1.2965 -2.0424
 5070SOL     MW20280   2.873   3.594   0.381  0.3202  0.4655 -0.4530
 5071SOL     OW20281   0.732   0.917   4.408  0.0397 -0.1602  0.1175
 5071SOL    HW120282   0.797   0.859   4.368  1.1556  0.0142  1.5694
 5071SOL    HW220283   0.663   0.858   4.439 -0.3259 -0.3862 -1.0798
 5071SOL     MW20284   0.731   0.902   4.407  0.1358 -0.1668  0.1501
 5072SOL     OW20285   0.692   3.216   0.923 -0.9240 -0.9082 -0.1468
 5072SOL    HW120286   0.715   3.299   0.964 -1.0261 -1.5184  1.2365
 5072SOL    HW220287   0.771   3.162   0.932 -1.2099 -1.3154 -0.0271
 5072SOL     MW20288   0.705   3.219   0.930 -0.9737 -1.0385  0.0456
 5073SOL     OW20289   1.053   2.362   3.778  0.3942  0.2169  0.0765
 5073SOL    HW120290   1.063   2.292   3.843 -0.0789  0.6519  0.6355
 5073SOL    HW220291   1.072   2.442   3.827  0.2816  0.5344 -0.3935
 5073SOL     MW20292   1.057   2.364   3.793  0.3192  0.3132  0.0879
 5074SOL     OW20293   3.978   2.257   4.458 -0.4164 -0.4902  0.2464
 5074SOL    HW120294   3.914   2.212   4.402 -0.1337 -1.2139  0.4819
 5074SOL    HW220295   4.061   2.211   4.439 -0.4771 -1.3401  1.8861
 5074SOL     MW20296   3.980   2.245   4.448 -0.3880 -0.6916  0.4865
 5075SOL     OW20297   0.785   4.514   4.004  0.5732  0.5422  0.1782
 5075SOL    HW120298   0.779   4.500   4.099  2.5806 -1.5789  0.0764
 5075SOL    HW220299   0.757   4.605   3.991 -2.5517  0.0872  2.4198
 5075SOL     MW20300   0.780   4.524   4.015  0.4302  0.2124  0.4521
 5076SOL     OW20301   1.664   3.425   3.863  0.0980  0.4151 -0.4736
 5076SOL    HW120302   1.572   3.409   3.883  0.2188  0.7510  0.3862
 5076SOL    HW220303   1.709   3.412   3.947  1.0759 -1.4819 -1.2291
 5076SOL     MW20304   1.658   3.421   3.876  0.2387  0.2153 -0.4603
 5077SOL     OW20305   0.196   0.434   4.036 -0.3269  0.3052  0.2235
 5077SOL    HW120306   0.145   0.423   4.116 -0.0286 -0.2127  0.3490
 5077SOL    HW220307   0.143   0.394   3.968 -0.1692 -0.0923  0.3275
 5077SOL     MW20308   0.183   0.428   4.038 -0.2685  0.1880  0.2529
 5078SOL     OW20309   0.902   3.558   1.409  0.6053  0.4559 -0.4245
 5078SOL    HW120310   0.835   3.500   1.373 -0.2872  1.7666 -0.9924
 5078SOL    HW220311   0.930   3.516   1.490  1.2755 -1.6239 -1.6572
 5078SOL     MW20312   0.897   3.546   1.415  0.5768  0.3575 -0.6550
 5079SOL     OW20313   2.189   3.267   4.759  0.2939  0.2142 -0.6482
 5079SOL    HW120314   2.265   3.323   4.746 -0.9138  1.8851 -0.7247
 5079SOL    HW220315   2.158   3.248   4.670 -0.1569  0.6468 -0.5854
 5079SOL     MW20316   2.195   3.271   4.746  0.0816  0.4834 -0.6500
 5080SOL     OW20317   4.270   0.475   2.801 -0.0025 -0.0333 -0.6468
 5080SOL    HW120318   4.359   0.447   2.824 -0.5314 -1.1100  0.1308
 5080SOL    HW220319   4.248   0.424   2.723 -0.2086 -0.3071 -0.4112
 5080SOL     MW20320   4.279   0.465   2.793 -0.0966 -0.2062 -0.5171
 5081SOL     OW20321   2.699   3.670   3.114 -0.3205  0.1331 -0.4625
 5081SOL    HW120322   2.769   3.661   3.051 -1.1479  1.0918 -1.5670
 5081SOL    HW220323   2.707   3.760   3.146 -0.3282 -0.1265  0.2912
 5081SOL     MW20324   2.709   3.681   3.110 -0.4274  0.2226 -0.5074
 5082SOL     OW20325   0.300   2.075   0.773  0.3864  0.1458 -0.2211
 5082SOL    HW120326   0.357   2.062   0.698  0.7181  0.6039 -0.0496
 5082SOL    HW220327   0.334   2.015   0.840  0.5027  0.2236 -0.2102
 5082SOL     MW20328   0.312   2.065   0.772  0.4437  0.2144 -0.1977
 5083SOL     OW20329   4.107   5.388   3.545 -0.7261 -0.1207 -0.1284
 5083SOL    HW120330   4.115   5.325   3.473  0.1309 -0.0338 -0.1297
 5083SOL    HW220331   4.017   5.380   3.575 -0.4411 -1.8475  0.3350
 5083SOL     MW20332   4.097   5.379   3.539 -0.5799 -0.3306 -0.0692
 5084SOL     OW20333   0.616   3.165   5.169 -0.2917 -0.1204 -0.2354
 5084SOL    HW120334   0.558   3.137   5.098  1.2799 -1.9600 -0.8568
 5084SOL    HW220335   0.676   3.227   5.127 -0.9833  0.8088  0.1187
 5084SOL     MW20336   0.616   3.170   5.155 -0.1791 -0.2369 -0.2696
 5085SOL     OW20337   2.566   3.334   2.603 -0.2594  0.4975  0.6031
 5085SOL    HW120338   2.569   3.275   2.678  1.6296  1.1384  1.0842
 5085SOL    HW220339   2.549   3.420   2.640 -0.1220  0.6942  0.2127
 5085SOL     MW20340   2.564   3.337   2.617 -0.0000  0.6047  0.6147
 5086SOL     OW20341   0.119   3.325   1.848 -0.2428 -0.4625  0.2533
 5086SOL    HW120342   0.131   3.260   1.778  0.3364  0.3827 -0.4524
 5086SOL    HW220343   0.043   3.376   1.821 -1.8285 -1.9443  1.7032
 5086SOL     MW20344   0.111   3.323   1.835 -0.3717 -0.5440  0.3486
 5087SOL     OW20345   3.165   2.471   3.446  0.0202 -0.0868 -0.5821
 5087SOL    HW120346   3.222   2.421   3.387 -0.3300  0.3148 -1.2838
 5087SOL    HW220347   3.125   2.405   3.502  1.8478 -0.2969  0.5455
 5087SOL     MW20348   3.167   2.456   3.445  0.2094 -0.0623 -0.5276
 5088SOL     OW20349   2.375   3.959   1.046 -0.3163 -0.3962  0.0215
 5088SOL    HW120350   2.351   3.868   1.029  2.3566 -1.1124 -0.3067
 5088SOL    HW220351   2.378   4.000   0.960  0.6499 -0.6091 -0.0546
 5088SOL     MW20352   2.372   3.953   1.033  0.1496 -0.5151 -0.0303
 5089SOL     OW20353   1.049   1.611   0.368 -0.0949  0.6494 -0.2427
 5089SOL    HW120354   0.985   1.682   0.362 -0.2603  0.7380  1.8103
 5089SOL    HW220355   1.003   1.534   0.336 -1.0580  0.8414  0.6121
 5089SOL     MW20356   1.035   1.610   0.363 -0.2393  0.6853  0.1295
 5090SOL     OW20357   4.055   3.975   0.801  0.7195 -0.8275 -0.2371
 5090SOL    HW120358   4.064   3.929   0.717  2.3658  0.1170 -0.6283
 5090SOL    HW220359   3.990   3.925   0.849  1.9916 -3.2119 -0.8594
 5090SOL     MW20360   4.048   3.963   0.796  1.0931 -1.0119 -0.3668
 5091SOL     OW20361   3.451   1.497   2.297 -0.2845  0.1490 -0.2581
 5091SOL    HW120362   3.367   1.496   2.344 -0.7973  0.0714 -1.1393
 5091SOL    HW220363   3.451   1.581   2.251  0.2695  0.2828 -0.0242
 5091SOL     MW20364   3.440   1.508   2.297 -0.2792  0.1562 -0.3409
 5092SOL     OW20365   1.135   3.748   0.718 -0.0561 -0.8328 -0.3364
 5092SOL    HW120366   1.104   3.659   0.704 -0.2105 -1.0018  0.9372
 5092SOL    HW220367   1.230   3.742   0.709 -0.0718 -1.1115 -0.3230
 5092SOL     MW20368   1.143   3.736   0.715 -0.0779 -0.8901 -0.1716
 5093SOL     OW20369   1.179   1.490   2.677 -0.0183  0.2115 -0.2029
 5093SOL    HW120370   1.224   1.569   2.704  0.2353  0.7105 -1.9782
 5093SOL    HW220371   1.207   1.424   2.741  0.9663  1.1774  0.4037
 5093SOL     MW20372   1.188   1.491   2.689  0.1402  0.3991 -0.3525
 5094SOL     OW20373   2.242   4.547   2.918  0.1775  0.0691 -0.5266
 5094SOL    HW120374   2.325   4.501   2.930  0.4853  0.1262 -2.2065
 5094SOL    HW220375   2.216   4.527   2.828  0.5556  3.5161 -1.5441
 5094SOL     MW20376   2.249   4.539   2.908  0.2653  0.5176 -0.8719
 5095SOL     OW20377   1.687   1.455   2.251 -0.2754 -0.2939  0.0423
 5095SOL    HW120378   1.685   1.383   2.315 -0.2163 -0.1171  0.2440
 5095SOL    HW220379   1.640   1.527   2.295  1.3721  0.4512  0.6431
 5095SOL     MW20380   1.680   1.455   2.265 -0.0569 -0.1759  0.1450
 5096SOL     OW20381   4.339   2.286   0.520 -0.0573  0.1092 -0.3814
 5096SOL    HW120382   4.424   2.272   0.562 -0.2443  1.4725  0.5079
 5096SOL    HW220383   4.337   2.223   0.448  0.6282 -1.7078  1.1238
 5096SOL     MW20384   4.350   2.276   0.516  0.0065  0.0511 -0.0749
 5097SOL     OW20385   1.933   2.890   0.297 -0.0719 -0.1864 -0.0675
 5097SOL    HW120386   1.912   2.972   0.253  1.2009  0.0322 -0.3234
 5097SOL    HW220387   1.852   2.864   0.341 -0.8997  0.4496 -1.1757
 5097SOL     MW20388   1.920   2.897   0.297 -0.0150 -0.0770 -0.2421
 5098SOL     OW20389   3.235   2.420   0.477 -0.1273  0.5248 -0.8180
 5098SOL    HW120390   3.328   2.443   0.482  0.1878 -0.5358 -1.4391
 5098SOL    HW220391   3.223   2.354   0.546 -0.4381  0.7303 -0.6768
 5098SOL     MW20392   3.245   2.414   0.486 -0.1268  0.4153 -0.8794
 5099SOL     OW20393   4.724   4.617   2.176  0.3346  0.5679 -0.1776
 5099SOL    HW120394   4.654   4.627   2.240  0.7491  2.8257  0.0169
 5099SOL    HW220395   4.707   4.684   2.110  1.9974  0.8232 -0.4102
 5099SOL     MW20396   4.713   4.627   2.175  0.6005  0.8896 -0.1825
 5100SOL     OW20397   3.205   1.691   1.073 -0.0793 -0.2773 -0.1511
 5100SOL    HW120398   3.281   1.658   1.026 -0.1487 -1.2755  0.4171
 5100SOL    HW220399   3.183   1.773   1.029  1.5894  0.2509 -0.0384
 5100SOL     MW20400   3.212   1.697   1.061  0.1255 -0.3375 -0.0639
 5101SOL     OW20401   0.922   3.467   1.041 -0.0281  0.2845  0.1031
 5101SOL    HW120402   0.842   3.519   1.033 -0.4461 -0.3540  0.0250
 5101SOL    HW220403   0.988   3.528   1.075 -0.4768  0.8842 -0.0883
 5101SOL     MW20404   0.921   3.481   1.044 -0.1390  0.2796  0.0686
 5102SOL     OW20405   4.200   4.687   1.989 -0.2739  0.0975 -0.2084
 5102SOL    HW120406   4.132   4.752   2.003 -0.8242 -0.5386  0.1194
 5102SOL    HW220407   4.154   4.603   1.993  0.3842 -0.3051 -0.8529
 5102SOL     MW20408   4.185   4.685   1.991 -0.2601 -0.0354 -0.2490
 5103SOL     OW20409   3.219   5.152   4.392 -0.1801  0.2095  0.5728
 5103SOL    HW120410   3.193   5.067   4.429  1.0810 -0.0849  0.8278
 5103SOL    HW220411   3.145   5.177   4.337 -0.4087 -1.2563  0.1546
 5103SOL     MW20412   3.206   5.144   4.390 -0.0480 -0.0158  0.5519
 5104SOL     OW20413   0.254   0.779   0.359  0.0198 -0.2174 -0.0499
 5104SOL    HW120414   0.212   0.696   0.334  0.0095 -0.3376  0.3682
 5104SOL    HW220415   0.347   0.766   0.341 -0.1647  0.2340 -1.4949
 5104SOL     MW20416   0.260   0.767   0.353 -0.0051 -0.1750 -0.1814
 5105SOL     OW20417   3.325   3.595   1.824 -0.5405 -0.4125  0.0767
 5105SOL    HW120418   3.320   3.675   1.771  1.6585 -0.0321  0.3509
 5105SOL    HW220419   3.337   3.525   1.760  0.8266 -0.1066 -0.0251
 5105SOL     MW20420   3.326   3.596   1.809 -0.0840 -0.3246  0.0987
 5106SOL     OW20421   4.116   4.186   4.504  0.3951 -0.2272 -0.2754
 5106SOL    HW120422   4.027   4.158   4.484  0.9919 -0.8034 -2.3799
 5106SOL    HW220423   4.115   4.281   4.490 -0.1457 -0.0492  0.8666
 5106SOL     MW20424   4.104   4.195   4.500  0.4023 -0.2782 -0.3986
 5107SOL     OW20425   0.231   4.095   4.034  0.4306  0.3081  0.2829
 5107SOL    HW120426   0.270   4.182   4.028  2.7618 -0.7191 -1.1529
 5107SOL    HW220427   0.277   4.044   3.967  0.7169 -2.5729  2.4984
 5107SOL     MW20428   0.242   4.100   4.025  0.7656 -0.1922  0.3827
 5108SOL     OW20429   2.431   3.344   4.016  0.1244  0.2478  0.2133
 5108SOL    HW120430   2.500   3.304   3.962 -1.1373 -0.4274 -0.9520
 5108SOL    HW220431   2.454   3.321   4.106  1.1727 -0.3387 -0.1901
 5108SOL     MW20432   2.443   3.336   4.021  0.0971  0.0863  0.0125
 5109SOL     OW20433   4.371   3.226   4.864 -0.1786 -0.2123 -0.0469
 5109SOL    HW120434   4.327   3.263   4.941  0.4169  0.2215  0.0943
 5109SOL    HW220435   4.329   3.269   4.789 -0.8919 -0.7752  0.0126
 5109SOL     MW20436   4.360   3.237   4.864 -0.1937 -0.2288 -0.0212
 5110SOL     OW20437   4.351   4.823   2.180  0.3254  0.0603 -0.7521
 5110SOL    HW120438   4.315   4.769   2.109 -2.5522  0.8750 -0.0652
 5110SOL    HW220439   4.311   4.909   2.166  0.2827  0.4396  1.3821
 5110SOL     MW20440   4.341   4.827   2.169 -0.0484  0.2131 -0.3910
 5111SOL     OW20441   1.400   3.518   2.088 -0.0546 -0.5317 -0.0095
 5111SOL    HW120442   1.364   3.554   2.007 -0.6924 -0.6661  0.2039
 5111SOL    HW220443   1.379   3.583   2.155  3.2907  1.1788 -0.4149
 5111SOL     MW20444   1.393   3.531   2.086  0.2920 -0.3299 -0.0341
 5112SOL     OW20445   1.467   3.663   3.490  0.5537 -0.8025  0.4642
 5112SOL    HW120446   1.450   3.673   3.583  0.1325 -0.2585  0.3352
 5112SOL    HW220447   1.396   3.607   3.458 -0.2507  0.3157  0.1893
 5112SOL     MW20448   1.456   3.657   3.498  0.3968 -0.5897  0.4125
 5113SOL     OW20449   5.464   3.571   5.160 -0.3232 -0.0620  0.1782
 5113SOL    HW120450   5.431   3.535   5.242 -0.7878  1.7507  0.8467
 5113SOL    HW220451   5.419   3.521   5.091 -0.6619 -0.9527  1.0280
 5113SOL     MW20452   5.454   3.560   5.161 -0.4261  0.0561  0.3726
 5114SOL     OW20453   1.687   2.844   0.456  0.0497 -0.0610  0.2429
 5114SOL    HW120454   1.699   2.878   0.545  1.9024  0.6395 -0.2358
 5114SOL    HW220455   1.612   2.892   0.422  0.2771  0.7776  0.9051
 5114SOL     MW20456   1.679   2.854   0.463  0.3159  0.1360  0.2664
 5115SOL     OW20457   5.092   2.816   0.066  0.8768  0.3490  0.0179
 5115SOL    HW120458   5.086   2.901   0.021 -1.9918 -0.0252 -0.4987
 5115SOL    HW220459   5.087   2.751  -0.004 -0.3505 -0.2273  0.6082
 5115SOL     MW20460   5.090   2.819   0.051  0.3525  0.2273  0.0273
 5116SOL     OW20461   1.646   2.467   2.868 -0.1324 -0.2936  0.6729
 5116SOL    HW120462   1.656   2.372   2.874  0.2523 -0.3966 -1.1036
 5116SOL    HW220463   1.729   2.498   2.832 -0.4586  0.6553  0.7073
 5116SOL     MW20464   1.658   2.459   2.864 -0.1249 -0.1853  0.4499
 5117SOL     OW20465   1.568   0.052   3.122  0.9119  0.5154 -0.2914
 5117SOL    HW120466   1.518   0.129   3.150  1.9709  1.2380 -0.3193
 5117SOL    HW220467   1.659   0.074   3.143  1.0165 -1.8549  2.3415
 5117SOL     MW20468   1.573   0.065   3.128  1.0608  0.3045  0.0421
 5118SOL     OW20469   2.016   2.270   1.071 -0.3349 -0.2319  0.0271
 5118SOL    HW120470   1.947   2.237   1.012 -0.1949 -0.4876  0.0054
 5118SOL    HW220471   2.008   2.365   1.065 -2.0198 -0.2191  1.5575
 5118SOL     MW20472   2.006   2.278   1.063 -0.5327 -0.2630  0.2202
 5119SOL     OW20473   1.024   4.378   2.501 -0.4186 -0.0285 -0.7324
 5119SOL    HW120474   0.970   4.301   2.485 -1.2616  0.2458  0.5696
 5119SOL    HW220475   1.111   4.354   2.467 -0.9902 -1.0233 -1.5616
 5119SOL     MW20476   1.029   4.365   2.495 -0.5997 -0.1208 -0.6719
 5120SOL     OW20477   2.981   5.114   4.024 -0.3918 -0.1376 -0.1749
 5120SOL    HW120478   2.892   5.096   3.994  0.0067  0.2527 -1.6768
 5120SOL    HW220479   2.982   5.209   4.038 -0.3628 -0.2185  0.4145
 5120SOL     MW20480   2.970   5.124   4.022 -0.3371 -0.0980 -0.2917
 5121SOL     OW20481   1.074   2.977   2.284 -0.2990 -0.2859  0.2100
 5121SOL    HW120482   1.077   3.068   2.314 -1.5236  0.4833 -1.7970
 5121SOL    HW220483   1.146   2.970   2.221  0.6599 -1.1498  1.3457
 5121SOL     MW20484   1.083   2.988   2.280 -0.3330 -0.2980  0.0984
 5122SOL     OW20485   5.081   3.869   5.153  0.3892 -0.1448 -0.1429
 5122SOL    HW120486   5.121   3.944   5.198  0.0085  2.4062 -3.6476
 5122SOL    HW220487   5.153   3.807   5.141  0.9012 -0.0912  2.0960
 5122SOL     MW20488   5.096   3.871   5.157  0.4060  0.1886 -0.3050
 5123SOL     OW20489   2.557   4.536   1.973  0.1410 -0.2759 -0.0584
 5123SOL    HW120490   2.588   4.494   1.892  1.3620  0.4747  0.0025
 5123SOL    HW220491   2.476   4.579   1.947 -1.3482 -2.8446 -0.0663
 5123SOL     MW20492   2.551   4.536   1.959  0.1067 -0.5087 -0.0516
 5124SOL     OW20493   1.920   2.170   5.076  0.3894 -0.2219 -0.2039
 5124SOL    HW120494   1.871   2.245   5.040  0.4197 -0.1198 -0.0334
 5124SOL    HW220495   2.004   2.207   5.102  0.8872 -0.5561 -1.2616
 5124SOL     MW20496   1.924   2.185   5.074  0.4570 -0.2516 -0.3175
 5125SOL     OW20497   2.573   4.577   1.201 -0.3609  0.7805  0.1064
 5125SOL    HW120498   2.600   4.661   1.164  1.7986 -0.8066 -2.2558
 5125SOL    HW220499   2.633   4.563   1.274  2.9654 -0.8182 -2.5935
 5125SOL     MW20500   2.584   4.586   1.205  0.3414  0.3726 -0.5416
 5126SOL     OW20501   1.743   1.970   2.595  0.0799 -0.5900 -0.9181
 5126SOL    HW120502   1.779   1.893   2.640  0.9576 -0.1628 -0.8505
 5126SOL    HW220503   1.660   1.940   2.558  0.4586 -1.6043 -0.9981
 5126SOL     MW20504   1.737   1.956   2.596  0.2407 -0.6651 -0.9197
 5127SOL     OW20505   5.408   1.726   3.762  0.1285 -0.0033  0.6300
 5127SOL    HW120506   5.340   1.774   3.714  0.2433  0.2151  0.6821
 5127SOL    HW220507   5.390   1.634   3.744  0.8419  0.0969 -0.7806
 5127SOL     MW20508   5.397   1.720   3.754  0.2345  0.0375  0.4561
 5128SOL     OW20509   0.052   1.283   0.782  0.2087  0.2249 -0.4084
 5128SOL    HW120510  -0.041   1.302   0.774 -0.0307 -0.8219 -0.1966
 5128SOL    HW220511   0.056   1.203   0.835  1.1322 -0.8307 -2.0075
 5128SOL     MW20512   0.041   1.275   0.788  0.2962 -0.0443 -0.5860
 5129SOL     OW20513   3.574   4.716   3.798 -0.2199  0.3358  0.0863
 5129SOL    HW120514   3.531   4.797   3.827 -0.4262 -0.2400  1.4653
 5129SOL    HW220515   3.668   4.733   3.813 -0.3887 -0.4189  2.5210
 5129SOL     MW20516   3.581   4.729   3.804 -0.2679  0.1655  0.5745
 5130SOL     OW20517   3.038   2.998   5.255  0.1296 -0.0244 -0.1591
 5130SOL    HW120518   3.083   2.915   5.242  0.3663  0.0903 -0.0808
 5130SOL    HW220519   2.945   2.977   5.244  0.2373 -0.1508 -0.8658
 5130SOL     MW20520   3.032   2.984   5.252  0.1737 -0.0259 -0.2396
 5131SOL     OW20521   0.562   4.900   0.033  0.5031 -0.1586  0.7040
 5131SOL    HW120522   0.599   4.943  -0.044  0.2249  0.0286  0.6695
 5131SOL    HW220523   0.541   4.812   0.004 -1.5362  0.5229 -0.0667
 5131SOL     MW20524   0.564   4.894   0.020  0.2064 -0.0474  0.6009
 5132SOL     OW20525   4.260   0.400   3.135  0.0552  0.2025 -0.4120
 5132SOL    HW120526   4.238   0.334   3.070  1.4852  0.2368 -0.9692
 5132SOL    HW220527   4.176   0.438   3.159 -0.5545  0.0008 -2.0463
 5132SOL     MW20528   4.246   0.397   3.129  0.1602  0.1811 -0.6925
 5133SOL     OW20529   2.365   4.012   4.917 -0.0969 -0.5371  0.2625
 5133SOL    HW120530   2.312   3.959   4.858  1.1759  0.7990 -2.2470
 5133SOL    HW220531   2.347   3.977   5.005 -2.8683 -1.9457 -0.7722
 5133SOL     MW20532   2.356   4.001   4.921 -0.2887 -0.5464 -0.1912
 5134SOL     OW20533   0.796   5.375   1.068 -0.2974 -0.0999 -0.8934
 5134SOL    HW120534   0.882   5.365   1.109 -1.2852 -0.3288  1.3020
 5134SOL    HW220535   0.777   5.289   1.030 -0.2854 -0.6268  0.2310
 5134SOL     MW20536   0.805   5.362   1.069 -0.4223 -0.1966 -0.4685
 5135SOL     OW20537   2.428   4.680   2.278 -0.4424 -0.1057 -0.0338
 5135SOL    HW120538   2.432   4.599   2.227  0.6453  1.0204 -1.8487
 5135SOL    HW220539   2.508   4.678   2.332 -1.2389 -0.9670  1.1596
 5135SOL     MW20540   2.439   4.670   2.278 -0.4052 -0.0718 -0.1133
 5136SOL     OW20541   4.946   4.934   1.055 -0.0228  0.0820 -0.3699
 5136SOL    HW120542   4.904   4.900   1.134  1.3235 -0.0686  0.3265
 5136SOL    HW220543   5.040   4.933   1.076  0.3203  0.6143 -1.7556
 5136SOL     MW20544   4.953   4.930   1.068  0.1935  0.1308 -0.4582
 5137SOL     OW20545   1.126   0.648   1.680  0.1737  0.0192 -1.0551
 5137SOL    HW120546   1.188   0.719   1.697 -0.2677  0.3575 -0.8299
 5137SOL    HW220547   1.155   0.610   1.596  2.5416 -1.8312  0.4549
 5137SOL     MW20548   1.138   0.652   1.671  0.4203 -0.1743 -0.8330
 5138SOL     OW20549   2.478   2.959   1.299 -0.4219  0.0981 -0.0968
 5138SOL    HW120550   2.479   2.865   1.314 -0.3000  0.0928 -0.1385
 5138SOL    HW220551   2.489   2.997   1.387 -3.1610  0.1179  0.3164
 5138SOL     MW20552   2.480   2.952   1.312 -0.7569  0.0999 -0.0492
 5139SOL     OW20553   4.392   2.324   1.282 -0.0398  0.1860 -0.0136
 5139SOL    HW120554   4.313   2.325   1.335 -0.6985 -2.7879 -0.7483
 5139SOL    HW220555   4.383   2.398   1.223 -2.4359 -0.2325 -0.2506
 5139SOL     MW20556   4.381   2.334   1.281 -0.4309 -0.2483 -0.1380
 5140SOL     OW20557   1.593   4.070   0.452  0.2388 -0.0273 -0.3947
 5140SOL    HW120558   1.624   4.020   0.528 -0.4221  1.1303  0.6883
 5140SOL    HW220559   1.541   4.008   0.402  3.8166 -1.9631 -2.0961
 5140SOL     MW20560   1.591   4.056   0.456  0.6122 -0.1269 -0.4739
 5141SOL     OW20561   1.359   0.992   3.783 -0.2364  0.0689  0.1548
 5141SOL    HW120562   1.336   1.064   3.841 -1.6228  0.6817 -1.0629
 5141SOL    HW220563   1.386   1.035   3.701 -1.1216 -0.7540 -0.6021
 5141SOL     MW20564   1.359   1.006   3.780 -0.5272  0.0420 -0.0980
 5142SOL     OW20565   5.469   2.049   4.927 -0.6120  0.0254  0.3308
 5142SOL    HW120566   5.446   2.110   4.997  0.5352  1.3869 -0.4146
 5142SOL    HW220567   5.392   1.994   4.916 -2.3062  2.3003  0.0540
 5142SOL     MW20568   5.456   2.050   4.935 -0.6820  0.4909  0.2000
 5143SOL     OW20569   1.015   5.171   4.834  0.0947  0.1821  0.3817
 5143SOL    HW120570   0.922   5.152   4.842  0.2872 -1.0803 -0.2239
 5143SOL    HW220571   1.022   5.265   4.853 -1.1521  0.0786  1.4729
 5143SOL     MW20572   1.004   5.181   4.838 -0.0403  0.0073  0.4439
 5144SOL     OW20573   2.208   5.150   0.276 -0.2146  0.4520 -0.4362
 5144SOL    HW120574   2.256   5.083   0.325  2.0925  2.5287  0.3663
 5144SOL    HW220575   2.189   5.218   0.341 -1.2257  1.2314 -1.5045
 5144SOL     MW20576   2.212   5.150   0.291 -0.0487  0.8176 -0.4702
 5145SOL     OW20577   0.239   4.684   1.367 -0.1507 -0.1109 -0.5554
 5145SOL    HW120578   0.237   4.650   1.456  0.7255  0.2569 -0.3821
 5145SOL    HW220579   0.171   4.750   1.365  0.1828  0.2545  0.0025
 5145SOL     MW20580   0.230   4.688   1.378  0.0041 -0.0170 -0.4618
 5146SOL     OW20581   0.810   3.165   4.712 -0.2141 -0.0081  0.1382
 5146SOL    HW120582   0.867   3.089   4.696 -1.3407 -0.6713 -0.9264
 5146SOL    HW220583   0.771   3.183   4.626 -1.1591  0.7858  0.7279
 5146SOL     MW20584   0.813   3.157   4.699 -0.4793  0.0086  0.0774
 5147SOL     OW20585   0.484   2.117   4.690  0.1408  0.0288  0.2662
 5147SOL    HW120586   0.430   2.130   4.613  0.3551 -0.7310 -0.0249
 5147SOL    HW220587   0.572   2.143   4.663  0.4847 -1.5149 -0.1848
 5147SOL     MW20588   0.489   2.122   4.677  0.2122 -0.2661  0.1712
 5148SOL     OW20589   2.934   2.620   0.487 -0.3561  0.4326  0.2144
 5148SOL    HW120590   2.846   2.621   0.524 -0.6109  2.4202 -0.3040
 5148SOL    HW220591   2.923   2.579   0.401 -0.4755 -0.6930  0.7562
 5148SOL     MW20592   2.922   2.615   0.480 -0.4040  0.5429  0.2174
 5149SOL     OW20593   4.811   0.168   1.812  0.3385 -0.0883 -0.0272
 5149SOL    HW120594   4.780   0.086   1.851 -0.5277 -0.8144 -2.1227
 5149SOL    HW220595   4.847   0.142   1.727 -0.9109  1.7885 -1.2156
 5149SOL     MW20596   4.812   0.154   1.806  0.0677  0.0590 -0.4476
 5150SOL     OW20597   5.241   5.144   1.527 -0.3720 -0.3245 -0.2204
 5150SOL    HW120598   5.277   5.055   1.519 -1.6465 -0.7091 -3.2856
 5150SOL    HW220599   5.174   5.148   1.459 -2.9610  1.8413  2.2396
 5150SOL     MW20600   5.237   5.133   1.517 -0.8666 -0.0965 -0.2979
 5151SOL     OW20601   1.858   2.924   3.184  0.0870 -0.0548  1.1074
 5151SOL    HW120602   1.936   2.977   3.174  0.1920 -0.1190  1.5567
 5151SOL    HW220603   1.891   2.836   3.203 -0.0721 -0.4178 -0.1811
 5151SOL     MW20604   1.872   2.919   3.185  0.0800 -0.1095  1.0000
 5152SOL     OW20605   2.169   2.305   5.117 -0.3663  0.1051  0.0087
 5152SOL    HW120606   2.158   2.325   5.023  1.1879 -0.1876 -0.2576
 5152SOL    HW220607   2.248   2.353   5.142  0.7607 -1.9223  0.5035
 5152SOL     MW20608   2.178   2.314   5.108 -0.0231 -0.1919  0.0379
 5153SOL     OW20609   3.951   2.763   2.515  0.1168  0.1424 -0.1815
 5153SOL    HW120610   3.971   2.769   2.609 -2.9017 -0.8323  0.6438
 5153SOL    HW220611   3.982   2.675   2.491  1.7711  0.7500 -0.4011
 5153SOL     MW20612   3.958   2.752   2.524 -0.0578  0.0954 -0.1039
 5154SOL     OW20613   3.111   1.618   4.980 -0.7299 -0.0687  0.3138
 5154SOL    HW120614   3.158   1.545   5.020 -1.0179 -0.1232  0.5557
 5154SOL    HW220615   3.062   1.658   5.052 -0.0642  0.7737  0.3205
 5154SOL     MW20616   3.111   1.614   4.994 -0.6815  0.0321  0.3456
 5155SOL     OW20617   2.715   2.100   3.420  0.4602 -0.3818 -0.1142
 5155SOL    HW120618   2.711   2.014   3.378 -1.4693 -0.9872  1.1943
 5155SOL    HW220619   2.717   2.162   3.347  1.0620 -1.4834 -1.0729
 5155SOL     MW20620   2.715   2.097   3.405  0.2903 -0.6003 -0.0694
 5156SOL     OW20621   3.948   3.789   3.798  0.0898  0.2593  0.1522
 5156SOL    HW120622   3.974   3.817   3.711 -2.7448 -0.0537 -0.9091
 5156SOL    HW220623   3.939   3.870   3.848 -1.2419  0.7374 -0.8067
 5156SOL     MW20624   3.950   3.803   3.793 -0.4436  0.2805 -0.1064
 5157SOL     OW20625   4.087   3.608   0.156  0.0553 -0.1332  0.0780
 5157SOL    HW120626   3.999   3.641   0.140  0.1523  0.1344  0.0882
 5157SOL    HW220627   4.107   3.555   0.079  0.1221  0.3110 -0.2150
 5157SOL     MW20628   4.079   3.605   0.144  0.0763 -0.0421  0.0418
 5158SOL     OW20629   4.652   2.483   1.216 -0.8026  0.6355 -1.1296
 5158SOL    HW120630   4.675   2.390   1.209  0.7886  0.9967 -1.0706
 5158SOL    HW220631   4.582   2.495   1.152 -0.2584 -0.3759 -1.9506
 5158SOL     MW20632   4.646   2.473   1.207 -0.5292  0.5522 -1.2272
 5159SOL     OW20633   5.378   4.879   1.521  0.0214 -0.0895  0.1983
 5159SOL    HW120634   5.466   4.897   1.487 -0.1268  2.9930  1.1527
 5159SOL    HW220635   5.361   4.789   1.495  2.8282 -0.2986 -1.3765
 5159SOL     MW20636   5.387   4.870   1.513  0.3617  0.2783  0.1189
 5160SOL     OW20637   3.938   4.432   1.188  0.3064 -0.1638 -0.3952
 5160SOL    HW120638   3.946   4.446   1.094  1.3235 -0.6018 -0.3899
 5160SOL    HW220639   3.844   4.420   1.203  0.1876 -0.6602 -1.4408
 5160SOL     MW20640   3.927   4.432   1.178  0.4214 -0.2834 -0.5284
 5161SOL     OW20641   0.546   3.333   0.621  0.6627 -0.0515  0.1539
 5161SOL    HW120642   0.478   3.349   0.687 -0.6040  0.4441 -1.2169
 5161SOL    HW220643   0.609   3.276   0.666 -0.1992  0.1681  1.7488
 5161SOL     MW20644   0.545   3.327   0.635  0.3902  0.0400  0.1826
 5162SOL     OW20645   3.722   2.209   5.092 -0.2879 -0.1766  0.7756
 5162SOL    HW120646   3.711   2.273   5.022 -1.5259  0.5430  1.5700
 5162SOL    HW220647   3.816   2.207   5.110  0.2849 -1.5718 -1.9328
 5162SOL     MW20648   3.732   2.217   5.085 -0.3731 -0.2630  0.5306
 5163SOL     OW20649   1.015   3.252   3.683  0.7556 -0.7356  0.4676
 5163SOL    HW120650   1.021   3.260   3.588  0.4523  3.1833  0.6476
 5163SOL    HW220651   0.922   3.238   3.701  0.6975 -0.6656  0.2177
 5163SOL     MW20652   1.004   3.251   3.674  0.7093 -0.2250  0.4587
 5164SOL     OW20653   0.852   0.357   1.739 -0.2285  0.1572  0.3756
 5164SOL    HW120654   0.861   0.440   1.786 -0.5086  0.8011 -0.6918
 5164SOL    HW220655   0.932   0.308   1.761  0.3091  1.0258  0.3770
 5164SOL     MW20656   0.864   0.361   1.748 -0.1955  0.3508  0.2391
 5165SOL     OW20657   2.836   4.259   1.486  0.5431 -0.6104 -0.2772
 5165SOL    HW120658   2.747   4.233   1.460  0.9441 -0.0773 -2.4197
 5165SOL    HW220659   2.843   4.351   1.458  1.4731 -0.3604  0.7065
 5165SOL     MW20660   2.825   4.268   1.479  0.7134 -0.5101 -0.4256
 5166SOL     OW20661   4.691   0.146   2.791 -0.0184 -0.4283  0.0748
 5166SOL    HW120662   4.771   0.104   2.824  0.0980  0.0460  0.4165
 5166SOL    HW220663   4.646   0.176   2.870 -1.4774 -2.3117  0.0189
 5166SOL     MW20664   4.696   0.145   2.805 -0.1903 -0.6087  0.1114
 5167SOL     OW20665   2.490   0.027   4.710 -0.6210 -0.0651  0.1768
 5167SOL    HW120666   2.438  -0.046   4.745 -1.8158  1.2255  1.2097
 5167SOL    HW220667   2.425   0.094   4.688  0.3297  0.2262 -2.0097
 5167SOL     MW20668   2.475   0.026   4.712 -0.6523  0.1374  0.0291
 5168SOL     OW20669   1.585   5.463   3.555 -0.0141 -0.1658  0.0022
 5168SOL    HW120670   1.599   5.411   3.476 -0.4169  0.2420 -0.3452
 5168SOL    HW220671   1.599   5.401   3.627  1.7823 -0.2014 -0.3301
 5168SOL     MW20672   1.588   5.448   3.554  0.1643 -0.1181 -0.0848
 5169SOL     OW20673   3.678   1.101   5.215 -0.3061 -0.1776  0.1020
 5169SOL    HW120674   3.611   1.112   5.282  0.7548  0.5315  1.1042
 5169SOL    HW220675   3.689   1.189   5.178  1.1930  0.1109  1.1234
 5169SOL     MW20676   3.671   1.114   5.219  0.0216 -0.0499  0.3611
 5170SOL     OW20677   2.595   2.588   2.629 -0.0750  0.1978 -0.1255
 5170SOL    HW120678   2.603   2.673   2.671  0.6134 -0.2187  0.6006
 5170SOL    HW220679   2.685   2.560   2.612 -0.3012  1.1590 -3.6098
 5170SOL     MW20680   2.607   2.595   2.632 -0.0158  0.2675 -0.4786
 5171SOL     OW20681   5.269   1.082   1.503  0.8309  0.3924 -0.1837
 5171SOL    HW120682   5.280   1.172   1.533  0.8406 -0.0974  1.3756
 5171SOL    HW220683   5.356   1.042   1.514  0.3298 -0.3873  1.2998
 5171SOL     MW20684   5.282   1.088   1.508  0.7680  0.2299  0.2058
 5172SOL     OW20685   1.380   5.068   2.294 -0.0442 -0.2283 -0.0354
 5172SOL    HW120686   1.318   5.141   2.303 -0.1824 -0.4234  0.7059
 5172SOL    HW220687   1.423   5.063   2.379  1.5041  0.3393 -0.7508
 5172SOL     MW20688   1.378   5.077   2.306  0.1363 -0.1806 -0.0321
 5173SOL     OW20689   5.263   2.275   2.057  0.5598 -0.2934 -0.2064
 5173SOL    HW120690   5.212   2.354   2.039  1.1708 -0.2455 -2.0239
 5173SOL    HW220691   5.230   2.243   2.140  0.4603  2.0058  0.7128
 5173SOL     MW20692   5.253   2.281   2.065  0.6253  0.0070 -0.3214
 5174SOL     OW20693   2.990   4.226   3.369  0.3867  0.1256  0.2479
 5174SOL    HW120694   3.049   4.241   3.296 -1.4455  0.5135 -1.2420
 5174SOL    HW220695   2.969   4.313   3.402 -1.4124  0.2277 -1.0196
 5174SOL     MW20696   2.995   4.239   3.364 -0.0782  0.1883 -0.1051
 5175SOL     OW20697   1.322   5.385   3.897  0.6010 -0.0892  0.7051
 5175SOL    HW120698   1.374   5.445   3.950 -0.8487  2.1657 -0.2833
 5175SOL    HW220699   1.231   5.404   3.923 -0.0858  0.4529 -1.8647
 5175SOL     MW20700   1.317   5.395   3.907  0.3275  0.2688  0.2496
 5176SOL     OW20701   1.392   3.079   1.579 -0.2834  0.4467  0.1369
 5176SOL    HW120702   1.476   3.033   1.572 -1.2199 -1.3067 -0.2597
 5176SOL    HW220703   1.350   3.066   1.494 -2.1648 -1.3271  1.2209
 5176SOL     MW20704   1.397   3.071   1.567 -0.6441 -0.0048  0.2249
 5177SOL     OW20705   4.605   3.649   4.542 -0.2061  0.1392  0.0795
 5177SOL    HW120706   4.625   3.559   4.567  0.4971  0.7281  1.7643
 5177SOL    HW220707   4.543   3.640   4.470 -0.4569 -1.6877  0.4622
 5177SOL     MW20708   4.599   3.636   4.536 -0.1482 -0.0193  0.3441
 5178SOL     OW20709   1.245   0.582   1.362 -0.3553 -0.4571 -0.3274
 5178SOL    HW120710   1.333   0.613   1.340  0.0501  0.9376  2.6750
 5178SOL    HW220711   1.187   0.652   1.332 -0.1248 -0.0426  0.1665
 5178SOL     MW20712   1.249   0.595   1.355 -0.2739 -0.2255  0.1202
 5179SOL     OW20713   5.343   5.189   5.068  0.3259 -0.1513 -0.1197
 5179SOL    HW120714   5.268   5.215   5.122  1.2547 -0.3828  1.3292
 5179SOL    HW220715   5.326   5.097   5.047  0.8644 -0.6178  1.3978
 5179SOL     MW20716   5.331   5.180   5.072  0.5137 -0.2407  0.2600
 5180SOL     OW20717   1.961   1.140   3.455 -0.2729 -0.9653  0.3281
 5180SOL    HW120718   1.966   1.236   3.450 -2.5655 -0.7596  0.7678
 5180SOL    HW220719   2.025   1.109   3.391  0.4860  0.8485  0.1387
 5180SOL     MW20720   1.970   1.149   3.446 -0.4692 -0.7068  0.3601
 5181SOL     OW20721   5.304   3.583   0.725 -0.4879  0.1273  0.4618
 5181SOL    HW120722   5.316   3.594   0.630 -0.4476  0.8442  0.5436
 5181SOL    HW220723   5.214   3.610   0.741 -1.0620 -1.6435  0.3947
 5181SOL     MW20724   5.294   3.588   0.715 -0.5562 -0.0076  0.4637
 5182SOL     OW20725   4.117  -0.014   3.200  0.0593 -0.1841  0.4869
 5182SOL    HW120726   4.078   0.068   3.231 -0.1115 -0.1671  0.2273
 5182SOL    HW220727   4.115  -0.007   3.104 -0.4368 -0.7213  0.4518
 5182SOL     MW20728   4.112  -0.002   3.191 -0.0261 -0.2507  0.4492
 5183SOL     OW20729   2.797   0.173   0.498  0.4763 -0.2123  0.1768
 5183SOL    HW120730   2.889   0.183   0.521  0.7994 -1.6594 -0.3739
 5183SOL    HW220731   2.753   0.245   0.542  1.9528  0.8656 -0.0621
 5183SOL     MW20732   2.803   0.183   0.507  0.7067 -0.2595  0.0757
 5184SOL     OW20733   0.167   1.851   3.210  0.3755  0.2117 -0.4480
 5184SOL    HW120734   0.191   1.759   3.223 -0.6963 -0.1143 -0.6203
 5184SOL    HW220735   0.137   1.855   3.119 -2.5377 -0.0188  0.3851
 5184SOL     MW20736   0.166   1.840   3.200 -0.1347  0.1405 -0.3634
 5185SOL     OW20737   1.589   1.307   3.440 -0.2058  0.0532 -1.0664
 5185SOL    HW120738   1.598   1.357   3.359  0.9743 -1.2558 -1.7876
 5185SOL    HW220739   1.645   1.230   3.427  0.7580  0.2588  1.3394
 5185SOL     MW20740   1.598   1.304   3.428  0.0686 -0.0880 -0.8508
 5186SOL     OW20741   4.152   0.172   1.814  0.1999  0.1222 -0.2782
 5186SOL    HW120742   4.068   0.132   1.837  0.6729 -1.2420 -0.8362
 5186SOL    HW220743   4.158   0.164   1.719  0.4578  1.2914 -0.3839
 5186SOL     MW20744   4.142   0.166   1.805  0.2935  0.0972 -0.3631
 5187SOL     OW20745   4.850   3.117   4.847  0.5555 -0.1456  0.2299
 5187SOL    HW120746   4.879   3.070   4.769  0.0286 -0.2184  0.0717
 5187SOL    HW220747   4.862   3.054   4.918  0.3728 -0.3291  0.1002
 5187SOL     MW20748   4.855   3.103   4.846  0.4647 -0.1784  0.1930
 5188SOL     OW20749   2.546   0.597   3.510  0.3224  0.3757 -0.0390
 5188SOL    HW120750   2.501   0.528   3.560 -1.3546  1.4293 -0.0165
 5188SOL    HW220751   2.616   0.627   3.568 -0.7329  0.6421  1.1362
 5188SOL     MW20752   2.549   0.592   3.524 -0.0274  0.5447  0.1143
 5189SOL     OW20753   0.825   2.100   3.797 -0.0180 -0.0894 -0.4547
 5189SOL    HW120754   0.907   2.137   3.830  0.8885 -0.0658 -2.5698
 5189SOL    HW220755   0.778   2.175   3.761 -0.3712 -0.3081 -0.4531
 5189SOL     MW20756   0.829   2.115   3.797  0.0528 -0.1144 -0.7253
 5190SOL     OW20757   5.364   2.514   2.608  0.1443  0.0542 -0.1294
 5190SOL    HW120758   5.398   2.590   2.561 -1.2282  0.4269 -0.5883
 5190SOL    HW220759   5.364   2.540   2.700  1.3955 -0.0945 -0.0727
 5190SOL     MW20760   5.368   2.527   2.614  0.1288  0.0829 -0.1809
 5191SOL     OW20761   3.064   4.724   2.470 -0.2412 -0.1924 -0.1651
 5191SOL    HW120762   3.152   4.732   2.506 -1.2804 -1.4952  2.9884
 5191SOL    HW220763   3.009   4.779   2.526 -1.8547 -1.7148 -0.1504
 5191SOL     MW20764   3.068   4.732   2.482 -0.5808 -0.5540  0.2405
 5192SOL     OW20765   3.943   3.980   1.991 -0.3748 -0.5487  1.1964
 5192SOL    HW120766   3.957   3.912   2.057 -1.1735 -0.5987  1.3330
 5192SOL    HW220767   4.023   4.032   1.992  0.7819 -2.2203  0.2145
 5192SOL     MW20768   3.955   3.978   2.000 -0.3290 -0.7691  1.0882
 5193SOL     OW20769   5.347   0.128   0.773  0.3488  0.0632  0.1152
 5193SOL    HW120770   5.273   0.160   0.825  1.4510  1.8528  0.6733
 5193SOL    HW220771   5.409   0.094   0.837  1.3566  1.5155 -0.0479
 5193SOL     MW20772   5.346   0.128   0.788  0.6189  0.4782  0.1658
 5194SOL     OW20773   0.265   0.743   5.152  0.0376 -0.0010 -0.3031
 5194SOL    HW120774   0.348   0.699   5.170  0.4076  0.1006 -1.6564
 5194SOL    HW220775   0.206   0.672   5.126 -0.3855 -0.1054  0.9158
 5194SOL     MW20776   0.268   0.728   5.151  0.0308 -0.0013 -0.3203
 5195SOL     OW20777   5.044   3.803   4.015 -0.5976  0.4110 -0.3181
 5195SOL    HW120778   5.119   3.860   3.995  0.7411 -0.7864  1.0474
 5195SOL    HW220779   4.997   3.848   4.085  0.1285  0.1563  0.3540
 5195SOL     MW20780   5.048   3.816   4.021 -0.3333  0.2251 -0.0573
 5196SOL     OW20781   1.869   2.423   2.277 -0.0660  0.0246 -0.0946
 5196SOL    HW120782   1.911   2.479   2.343 -0.2515 -0.0218  0.0619
 5196SOL    HW220783   1.850   2.483   2.204  0.9455 -0.0941 -0.4812
 5196SOL     MW20784   1.872   2.438   2.276  0.0397  0.0035 -0.1241
 5197SOL     OW20785   0.470   4.836   2.798  0.1593  0.1090  0.0112
 5197SOL    HW120786   0.510   4.920   2.774 -1.1149  0.2453 -1.7786
 5197SOL    HW220787   0.527   4.770   2.760 -0.3398  0.2521 -1.0005
 5197SOL     MW20788   0.482   4.839   2.790 -0.0677  0.1447 -0.3474
 5198SOL     OW20789   2.886   2.886   2.393 -0.1730  0.3106  0.1766
 5198SOL    HW120790   2.858   2.910   2.482 -1.7743 -0.9838  0.0634
 5198SOL    HW220791   2.916   2.968   2.354 -2.1712  1.4666  0.9416
 5198SOL     MW20792   2.886   2.900   2.400 -0.6338  0.2929  0.2601
 5199SOL     OW20793   1.511   0.103   1.174 -0.4982  0.0122 -0.1318
 5199SOL    HW120794   1.483   0.145   1.092 -0.6306 -0.9746 -0.6115
 5199SOL    HW220795   1.539   0.175   1.230 -1.1293  0.7741 -0.7686
 5199SOL     MW20796   1.511   0.118   1.171 -0.5959 -0.0166 -0.2748
 5200SOL     OW20797   2.600   0.141   3.154  0.5886 -0.3307  0.3842
 5200SOL    HW120798   2.621   0.087   3.078 -0.0628 -0.2945  0.1656
 5200SOL    HW220799   2.525   0.194   3.125  0.0585 -0.6237  1.1804
 5200SOL     MW20800   2.593   0.141   3.140  0.4373 -0.3636  0.4581
 5201SOL     OW20801   1.669   1.710   0.118  0.3032 -0.6824  0.0705
 5201SOL    HW120802   1.741   1.677   0.172  0.3008  0.8319  1.0952
 5201SOL    HW220803   1.600   1.730   0.181  0.1614  0.7937 -0.5145
 5201SOL     MW20804   1.670   1.709   0.133  0.2847 -0.2996  0.1268
 5202SOL     OW20805   1.541   4.781   2.799 -0.6068  0.3404  0.4571
 5202SOL    HW120806   1.466   4.735   2.837 -1.2423  1.1723  0.2462
 5202SOL    HW220807   1.535   4.762   2.706  0.7110 -1.3537  0.6604
 5202SOL     MW20808   1.531   4.772   2.792 -0.5195  0.2301  0.4561
 5203SOL     OW20809   1.588   0.953   2.555  0.0572 -0.0039  0.2561
 5203SOL    HW120810   1.594   0.880   2.616 -1.6510  0.2504  0.7877
 5203SOL    HW220811   1.536   1.019   2.601  1.2957  1.4372 -0.3407
 5203SOL     MW20812   1.582   0.952   2.568 -0.0029  0.2131  0.2478
 5204SOL     OW20813   4.992   3.231   1.471 -0.4248  0.1435  0.5666
 5204SOL    HW120814   5.043   3.151   1.480 -1.9034 -0.8225  0.6093
 5204SOL    HW220815   4.905   3.202   1.444 -0.8923  1.7657  0.2088
 5204SOL     MW20816   4.987   3.217   1.469 -0.6739  0.2275  0.5263
 5205SOL     OW20817   0.117   5.440   0.088  0.5339 -0.1090  0.8469
 5205SOL    HW120818   0.208   5.451   0.116  1.4101  1.1712 -2.1852
 5205SOL    HW220819   0.118   5.362   0.033  0.3628  1.2528 -1.1610
 5205SOL     MW20820   0.129   5.431   0.085  0.6242  0.2292  0.2017
 5206SOL     OW20821   1.088   2.816   2.476 -0.5444 -0.1342 -0.4485
 5206SOL    HW120822   1.117   2.735   2.434 -3.7825 -1.0630 -1.1304
 5206SOL    HW220823   1.090   2.881   2.407 -0.1227 -0.1666 -0.4721
 5206SOL     MW20824   1.092   2.814   2.462 -0.9049 -0.2573 -0.5388
 5207SOL     OW20825   2.527   1.709   1.203  0.2372  0.1598 -0.4011
 5207SOL    HW120826   2.594   1.714   1.271  0.7653  1.8990 -0.9704
 5207SOL    HW220827   2.500   1.801   1.189 -0.4197 -0.2255 -1.9660
 5207SOL     MW20828   2.532   1.722   1.210  0.2207  0.3331 -0.6743
 5208SOL     OW20829   2.192   4.982   1.866  0.0907  0.4359 -0.0219
 5208SOL    HW120830   2.237   5.052   1.914 -0.3199  0.8814 -0.2773
 5208SOL    HW220831   2.166   5.023   1.784  0.4687 -0.2178 -0.4809
 5208SOL     MW20832   2.195   4.996   1.862  0.0865  0.4092 -0.1134
 5209SOL     OW20833   4.997   4.156   3.919 -0.6347 -0.1139  0.2370
 5209SOL    HW120834   4.946   4.162   3.838 -0.4833 -0.5317  0.1073
 5209SOL    HW220835   5.085   4.130   3.890 -0.7730 -1.0112  0.5937
 5209SOL     MW20836   5.002   4.153   3.905 -0.6330 -0.2823  0.2660
 5210SOL     OW20837   3.153   5.393   3.841  0.3287 -0.3502  0.0991
 5210SOL    HW120838   3.145   5.314   3.788 -0.9739 -1.1613  1.4099
 5210SOL    HW220839   3.125   5.464   3.782 -1.1869 -1.2304 -0.2978
 5210SOL     MW20840   3.148   5.392   3.827 -0.0321 -0.5667  0.2161
 5211SOL     OW20841   4.720   1.986   5.406  0.5714 -0.4356  0.7563
 5211SOL    HW120842   4.764   1.905   5.378 -1.5368 -1.0126 -1.1791
 5211SOL    HW220843   4.627   1.967   5.398 -0.0141  1.8528  1.3601
 5211SOL     MW20844   4.714   1.973   5.402  0.2266 -0.2165  0.5858
 5212SOL     OW20845   0.735   3.757   3.016 -0.1058  0.3306  0.1308
 5212SOL    HW120846   0.726   3.783   2.925  0.2912  0.6960  0.1916
 5212SOL    HW220847   0.719   3.662   3.016 -0.9287  0.4665 -0.1858
 5212SOL     MW20848   0.732   3.748   3.004 -0.1603  0.3948  0.0981
 5213SOL     OW20849   3.587   1.007   2.620  0.5479 -0.3771  0.2100
 5213SOL    HW120850   3.665   1.007   2.565  1.5548 -0.4276  1.5662
 5213SOL    HW220851   3.605   0.941   2.687 -1.1516 -1.1807 -0.0807
 5213SOL     MW20852   3.599   0.999   2.622  0.4592 -0.4864  0.3464
 5214SOL     OW20853   4.622   1.464   1.722 -0.1824  0.1633  0.6625
 5214SOL    HW120854   4.681   1.452   1.796 -0.6379 -0.3676  0.9429
 5214SOL    HW220855   4.661   1.412   1.651  0.1045  0.4510  0.6048
 5214SOL     MW20856   4.635   1.456   1.722 -0.2040  0.1322  0.6910
 5215SOL     OW20857   1.552   2.459   1.807  0.3204 -0.0658  0.3963
 5215SOL    HW120858   1.581   2.549   1.791  0.1240 -0.2062 -0.8730
 5215SOL    HW220859   1.632   2.409   1.817  0.4604  0.0428 -0.1533
 5215SOL     MW20860   1.566   2.464   1.806  0.3132 -0.0699  0.1634
 5216SOL     OW20861   4.147   3.221   2.524 -0.2856 -0.7918  0.2211
 5216SOL    HW120862   4.188   3.177   2.599 -0.4606 -0.4337  0.5305
 5216SOL    HW220863   4.057   3.237   2.552  0.0674  0.7506  0.5479
 5216SOL     MW20864   4.141   3.217   2.537 -0.2628 -0.5485  0.3025
 5217SOL     OW20865   3.288   2.985   4.936  0.2572  0.3393  0.1821
 5217SOL    HW120866   3.200   2.956   4.912 -0.5362 -0.2188  3.2893
 5217SOL    HW220867   3.334   2.905   4.961  1.4846  0.6983 -0.8220
 5217SOL     MW20868   3.282   2.971   4.936  0.3128  0.3138  0.4513
 5218SOL     OW20869   2.523   3.970   2.469 -0.7109 -0.5144 -0.8535
 5218SOL    HW120870   2.435   3.951   2.437  0.1230 -1.5528 -2.6746
 5218SOL    HW220871   2.578   3.974   2.391  0.9915 -0.5854  0.2651
 5218SOL     MW20872   2.519   3.968   2.455 -0.3862 -0.6565 -0.9434
 5219SOL     OW20873   3.333   1.379   1.053 -0.4270 -0.3963  0.1020
 5219SOL    HW120874   3.372   1.434   1.121 -0.9070  0.5359 -0.3587
 5219SOL    HW220875   3.396   1.308   1.040  1.0144  0.9331 -0.4513
 5219SOL     MW20876   3.346   1.377   1.060 -0.3039 -0.1068 -0.0278
 5220SOL     OW20877   4.042   4.989   1.060  0.1232 -0.8088 -0.3785
 5220SOL    HW120878   4.080   4.994   1.147 -2.1168  1.5221  0.6070
 5220SOL    HW220879   4.030   4.895   1.044  1.5522 -1.3323  1.3393
 5220SOL     MW20880   4.045   4.977   1.069  0.0194 -0.5775 -0.0324
 5221SOL     OW20881   3.191   0.093   4.342 -0.1330 -0.7925 -0.1887
 5221SOL    HW120882   3.210   0.169   4.398 -1.1774 -0.5278 -0.1571
 5221SOL    HW220883   3.262   0.032   4.359  0.1064 -0.2945  0.6716
 5221SOL     MW20884   3.202   0.095   4.351 -0.2361 -0.6949 -0.0745
 5222SOL     OW20885   0.775   0.013   4.148  0.1270  0.3946 -0.4087
 5222SOL    HW120886   0.774   0.081   4.215  2.5464  0.4626 -0.3637
 5222SOL    HW220887   0.788   0.060   4.066  0.3834  0.0769 -0.5505
 5222SOL     MW20888   0.776   0.028   4.146  0.4695  0.3627 -0.4211
 5223SOL     OW20889   4.768   3.449   2.654  0.2279 -0.4646  0.1584
 5223SOL    HW120890   4.716   3.381   2.697 -0.4184 -1.4081 -1.9565
 5223SOL    HW220891   4.859   3.429   2.679 -0.2098 -0.1435  2.1115
 5223SOL     MW20892   4.773   3.438   2.662  0.0891 -0.5443  0.1377
 5224SOL     OW20893   0.030   2.302   3.919  0.1376  0.0391  0.0301
 5224SOL    HW120894   0.021   2.361   3.844  1.2564 -0.5552 -0.6105
 5224SOL    HW220895   0.075   2.225   3.884  1.3684  0.0551  1.4471
 5224SOL     MW20896   0.035   2.300   3.905  0.4384 -0.0349  0.1295
 5225SOL     OW20897   0.695   4.802   2.419 -0.0683  0.5692  0.2246
 5225SOL    HW120898   0.750   4.725   2.434  0.7859  1.2624  0.8184
 5225SOL    HW220899   0.757   4.875   2.419 -0.9104  1.3007  0.1300
 5225SOL     MW20900   0.710   4.802   2.421 -0.0668  0.7516  0.2885
 5226SOL     OW20901   1.097   4.762   5.363  0.3071 -0.3254  0.3378
 5226SOL    HW120902   1.124   4.684   5.315  1.3634 -0.7586  1.5751
 5226SOL    HW220903   1.098   4.832   5.299 -0.2270 -1.2322 -0.6965
 5226SOL     MW20904   1.100   4.761   5.349  0.3740 -0.4969  0.3638
 5227SOL     OW20905   1.902   3.102   0.126  0.6900  0.2006  0.2842
 5227SOL    HW120906   1.869   3.187   0.154 -1.6926 -0.8631  1.0076
 5227SOL    HW220907   1.862   3.089   0.040 -0.6270 -0.9796  1.0326
 5227SOL     MW20908   1.892   3.111   0.118  0.2164 -0.0867  0.4726
 5228SOL     OW20909   1.575   1.894   0.719  0.1724  0.2700 -0.4591
 5228SOL    HW120910   1.659   1.932   0.745  0.4753 -0.3699 -0.4841
 5228SOL    HW220911   1.596   1.841   0.642 -0.4651  1.0350 -1.1903
 5228SOL     MW20912   1.588   1.892   0.712  0.1296  0.2860 -0.5559
 5229SOL     OW20913   2.903   2.008   1.566  0.0525  0.0164 -0.2238
 5229SOL    HW120914   2.983   2.062   1.565 -0.8011  1.4004 -2.2571
 5229SOL    HW220915   2.920   1.939   1.502 -0.3187  0.2872 -0.6271
 5229SOL     MW20916   2.915   2.006   1.558 -0.1043  0.2282 -0.5357
 5230SOL     OW20917   3.810   5.014   0.284  0.0115 -0.6961  0.2534
 5230SOL    HW120918   3.829   4.956   0.357 -0.7473 -2.4241 -0.8705
 5230SOL    HW220919   3.841   4.967   0.207  1.1617  1.2530 -0.5557
 5230SOL     MW20920   3.817   5.001   0.284  0.0616 -0.6678  0.0059
 5231SOL     OW20921   4.876   0.779   3.162 -0.5005  0.4015  0.2521
 5231SOL    HW120922   4.956   0.831   3.176  0.7699 -1.0905 -1.0449
 5231SOL    HW220923   4.908   0.691   3.146 -2.4235 -0.1682 -0.6734
 5231SOL     MW20924   4.891   0.775   3.162 -0.5840  0.1376 -0.0324
 5232SOL     OW20925   2.680   3.512   4.797 -0.1286 -0.3063  0.5397
 5232SOL    HW120926   2.654   3.583   4.856 -0.6694 -0.9808  1.1256
 5232SOL    HW220927   2.776   3.514   4.799 -0.1275  0.7714  0.0990
 5232SOL     MW20928   2.689   3.521   4.805 -0.1977 -0.2547  0.5583
 5233SOL     OW20929   4.410   3.523   4.766  0.4084 -0.0078  0.5457
 5233SOL    HW120930   4.371   3.553   4.848  0.8955 -0.1820  0.8471
 5233SOL    HW220931   4.473   3.592   4.743 -0.2709  0.4138 -0.0900
 5233SOL     MW20932   4.413   3.536   4.773  0.3838  0.0239  0.5029
 5234SOL     OW20933   3.027   3.417   1.499 -0.6948  0.3760 -0.4201
 5234SOL    HW120934   3.049   3.442   1.588 -0.8654 -0.9166  0.0094
 5234SOL    HW220935   3.050   3.493   1.446  0.5558  0.7160  0.5614
 5234SOL     MW20936   3.032   3.430   1.503 -0.5566  0.2541 -0.2395
 5235SOL     OW20937   2.069   3.082   4.947  0.1125 -0.2441 -0.4931
 5235SOL    HW120938   2.113   3.160   4.914  0.3557  0.3420  1.1124
 5235SOL    HW220939   2.032   3.040   4.869  2.8902 -0.3923 -1.8735
 5235SOL     MW20940   2.070   3.086   4.933  0.4992 -0.1880 -0.4643
 5236SOL     OW20941   2.501   0.422   3.942 -0.1410  0.6883 -0.1176
 5236SOL    HW120942   2.474   0.330   3.939 -0.6118  0.8068  0.2620
 5236SOL    HW220943   2.479   0.457   3.856  0.6287  0.2919 -0.4860
 5236SOL     MW20944   2.495   0.415   3.931 -0.1027  0.6527 -0.1161
 5237SOL     OW20945   0.943   4.170   0.927 -0.4010  0.0982 -0.0183
 5237SOL    HW120946   0.967   4.084   0.961  0.2544  0.7373  1.2192
 5237SOL    HW220947   0.972   4.231   0.995 -0.5249  1.3226 -1.0339
 5237SOL     MW20948   0.949   4.167   0.940 -0.3329  0.3368  0.0101
 5238SOL     OW20949   1.803   2.323   1.811  0.6132 -0.9346 -0.3122
 5238SOL    HW120950   1.871   2.372   1.763  0.0004  1.3159  0.9673
 5238SOL    HW220951   1.769   2.261   1.746  1.0772  0.6973 -2.2411
 5238SOL     MW20952   1.808   2.322   1.796  0.5941 -0.4376 -0.3953
 5239SOL     OW20953   1.429   4.178   5.180  0.3465 -0.3664 -1.0473
 5239SOL    HW120954   1.466   4.101   5.224 -1.3139 -0.6529 -0.0492
 5239SOL    HW220955   1.340   4.152   5.157 -0.5253  1.4794  0.0026
 5239SOL     MW20956   1.422   4.165   5.183  0.0223 -0.1668 -0.7851
 5240SOL     OW20957   1.500   3.899   3.329  0.4244 -0.2725 -0.2073
 5240SOL    HW120958   1.460   3.880   3.244 -1.4843 -1.7532  0.9396
 5240SOL    HW220959   1.486   3.820   3.380  0.9321  0.8168  1.7174
 5240SOL     MW20960   1.493   3.887   3.325  0.2450 -0.3226  0.1859
 5241SOL     OW20961   4.658   4.953   0.484 -0.2540  0.6487  0.3085
 5241SOL    HW120962   4.725   4.975   0.549 -0.3714  1.2216  0.2391
 5241SOL    HW220963   4.686   4.869   0.448  0.5537  0.9845  0.1254
 5241SOL     MW20964   4.671   4.945   0.487 -0.1656  0.7651  0.2762
 5242SOL     OW20965   4.648   3.417   4.674  0.2688  0.4296  0.3007
 5242SOL    HW120966   4.581   3.459   4.729  0.7431  3.1087 -1.0073
 5242SOL    HW220967   4.607   3.336   4.645 -1.1237  0.3799  2.1837
 5242SOL     MW20968   4.634   3.412   4.678  0.1512  0.7662  0.3743
 5243SOL     OW20969   4.552   4.571   0.081 -0.2883 -0.8126 -0.2218
 5243SOL    HW120970   4.623   4.511   0.105 -0.5263 -1.6050 -1.4215
 5243SOL    HW220971   4.532   4.549  -0.010  0.3082  1.8154 -1.0627
 5243SOL     MW20972   4.559   4.560   0.073 -0.2424 -0.5776 -0.4830
 5244SOL     OW20973   3.750   0.445   4.815 -0.1867 -0.3008 -0.0022
 5244SOL    HW120974   3.757   0.539   4.830  1.2373 -0.2315 -1.0094
 5244SOL    HW220975   3.769   0.433   4.722 -2.2446 -1.4135 -0.3600
 5244SOL     MW20976   3.753   0.455   4.805 -0.2679 -0.4343 -0.1769
 5245SOL     OW20977   0.200   0.380   0.063  0.5185 -0.3901  0.2047
 5245SOL    HW120978   0.210   0.306   0.003  0.8951 -0.1183 -0.0744
 5245SOL    HW220979   0.116   0.365   0.106  1.0604 -1.5035  0.9001
 5245SOL     MW20980   0.190   0.369   0.061  0.6361 -0.4978  0.2580
 5246SOL     OW20981   2.241   0.557   1.317 -0.4496 -0.7325 -0.2825
 5246SOL    HW120982   2.289   0.568   1.235 -0.8239 -0.6028 -0.4874
 5246SOL    HW220983   2.308   0.556   1.384 -0.0504 -1.7897 -0.6689
 5246SOL     MW20984   2.256   0.558   1.315 -0.4464 -0.8512 -0.3582
 5247SOL     OW20985   5.420   2.688   0.964  0.0585 -0.1465  0.5869
 5247SOL    HW120986   5.425   2.674   0.869  0.2796  2.4672  0.1299
 5247SOL    HW220987   5.508   2.716   0.989 -0.0788 -0.5170  1.5245
 5247SOL     MW20988   5.432   2.690   0.955  0.0693  0.1407  0.6484
 5248SOL     OW20989   4.548   3.034   3.212 -0.2712 -0.8352 -0.0616
 5248SOL    HW120990   4.584   3.042   3.300 -0.5312  0.3134 -0.0364
 5248SOL    HW220991   4.609   3.083   3.157 -0.5460 -0.8564 -0.3890
 5248SOL     MW20992   4.560   3.041   3.216 -0.3397 -0.6909 -0.1003
 5249SOL     OW20993   3.868   4.847   1.773  0.1471  0.1577 -0.2692
 5249SOL    HW120994   3.826   4.930   1.748  0.6335  0.1221 -1.2247
 5249SOL    HW220995   3.799   4.800   1.820  0.1249  1.4611  1.1116
 5249SOL     MW20996   3.853   4.852   1.776  0.2065  0.3200 -0.2148
 5250SOL     OW20997   0.380   4.144   0.046  0.0947 -0.3059 -0.2156
 5250SOL    HW120998   0.317   4.181  -0.015  1.0086  0.3502 -0.7840
 5250SOL    HW220999   0.374   4.199   0.124  0.5564  0.2870 -0.5886
 5250SOL     MW21000   0.371   4.156   0.048  0.2708 -0.1460 -0.3361
 5251SOL     OW21001   4.361   3.548   1.951  0.4981  0.6629  0.5681
 5251SOL    HW121002   4.343   3.642   1.964 -0.0774  0.8797 -1.4738
 5251SOL    HW221003   4.290   3.504   1.998 -0.8369  1.3454 -0.7389
 5251SOL     MW21004   4.350   3.555   1.959  0.2535  0.7780  0.1394
 5252SOL     OW21005   4.519   2.982   1.247 -0.0580 -0.1773 -0.3696
 5252SOL    HW121006   4.614   2.995   1.248 -0.2322  1.3167  0.0821
 5252SOL    HW221007   4.506   2.907   1.189  1.3654 -0.1562 -0.7707
 5252SOL     MW21008   4.530   2.974   1.240  0.1019  0.0167 -0.3631
 5253SOL     OW21009   5.213   3.592   4.088  0.1303 -0.5327  0.1908
 5253SOL    HW121010   5.175   3.675   4.058 -0.0714  0.0848  2.0373
 5253SOL    HW221011   5.275   3.568   4.019 -0.6838  0.5242 -0.9486
 5253SOL     MW21012   5.216   3.600   4.075  0.0003 -0.3183  0.2814
 5254SOL     OW21013   3.090   2.824   0.685 -0.4616  0.0952 -0.0453
 5254SOL    HW121014   3.162   2.794   0.740 -2.5332  0.0062  2.8332
 5254SOL    HW221015   3.110   2.917   0.668  0.0205  0.2553  1.2855
 5254SOL     MW21016   3.102   2.832   0.690 -0.6650  0.1043  0.4936
 5255SOL     OW21017   2.418   2.533   1.621 -1.2393  0.0030 -0.1102
 5255SOL    HW121018   2.453   2.458   1.573 -0.8671 -0.3099  0.6384
 5255SOL    HW221019   2.488   2.599   1.618 -1.7692  0.5546 -1.2383
 5255SOL     MW21020   2.431   2.532   1.614 -1.2595  0.0336 -0.1588
 5256SOL     OW21021   2.981   0.023   4.510 -0.0122  0.2201  0.0043
 5256SOL    HW121022   3.002  -0.007   4.599  0.5477  0.4189 -0.0554
 5256SOL    HW221023   3.063   0.062   4.478 -0.5043  1.1076 -0.2102
 5256SOL     MW21024   2.994   0.024   4.518 -0.0036  0.3592 -0.0308
 5257SOL     OW21025   4.629   4.560   2.657 -0.3395  0.0847 -0.4270
 5257SOL    HW121026   4.562   4.513   2.706  0.9650 -1.7343 -0.2938
 5257SOL    HW221027   4.660   4.628   2.716 -1.6570  0.5972 -0.2976
 5257SOL     MW21028   4.624   4.562   2.671 -0.3411 -0.0825 -0.3933
 5258SOL     OW21029   2.843   0.636   4.979 -0.0379 -0.5200 -0.0997
 5258SOL    HW121030   2.873   0.727   4.981  1.1890 -0.9205  1.0804
 5258SOL    HW221031   2.859   0.608   4.889 -1.6803  0.7843 -0.8682
 5258SOL     MW21032   2.849   0.644   4.968 -0.0911 -0.4043 -0.0470
 5259SOL     OW21033   3.638   2.654   3.691  0.1352  0.1900  0.1185
 5259SOL    HW121034   3.547   2.685   3.699 -0.3159 -1.1569  0.4198
 5259SOL    HW221035   3.645   2.584   3.755  1.2014 -0.1700 -0.3740
 5259SOL     MW21036   3.627   2.649   3.700  0.2139 -0.0285  0.0940
 5260SOL     OW21037   4.164   4.845   4.896 -0.0125  0.2115 -0.5656
 5260SOL    HW121038   4.123   4.843   4.810 -1.6204 -1.1811  0.1615
 5260SOL    HW221039   4.231   4.776   4.893  0.9569  1.1597 -1.1392
 5260SOL     MW21040   4.167   4.836   4.885 -0.0942  0.1546 -0.5459
 5261SOL     OW21041   4.054   0.962   3.093 -0.3299  0.0182  0.2007
 5261SOL    HW121042   4.113   0.892   3.066 -0.3705 -0.1557  0.5572
 5261SOL    HW221043   4.090   1.041   3.053 -1.3942 -0.4938 -1.8641
 5261SOL     MW21044   4.066   0.963   3.085 -0.4714 -0.0696 -0.0180
 5262SOL     OW21045   4.519   3.184   4.628  0.0940  0.6132  0.4985
 5262SOL    HW121046   4.496   3.192   4.721 -0.1206  2.2350  0.3202
 5262SOL    HW221047   4.436   3.197   4.582  0.2452  0.0477  0.0496
 5262SOL     MW21048   4.505   3.187   4.634  0.0859  0.7484  0.4182
 5263SOL     OW21049   4.365   2.788   2.553 -0.2215  0.3410  0.2075
 5263SOL    HW121050   4.337   2.700   2.580  0.3959 -0.4257 -1.4974
 5263SOL    HW221051   4.295   2.820   2.497 -0.0993  0.6378  0.2217
 5263SOL     MW21052   4.353   2.781   2.550 -0.1268  0.2808 -0.0089
 5264SOL     OW21053   0.367   3.785   5.033 -0.2999  0.0296 -0.6942
 5264SOL    HW121054   0.337   3.761   5.120  0.7026  1.9285  0.2447
 5264SOL    HW221055   0.287   3.807   4.985 -0.8719 -1.2260 -0.3301
 5264SOL     MW21056   0.353   3.785   5.038 -0.2448  0.1119 -0.5274
 5265SOL     OW21057   4.992   5.488   1.081 -0.2448 -0.2448  0.0604
 5265SOL    HW121058   4.972   5.399   1.054  2.2741 -0.6360 -0.8136
 5265SOL    HW221059   5.074   5.481   1.130 -0.0718  1.5631  0.1163
 5265SOL     MW21060   5.000   5.476   1.084  0.0998 -0.0634 -0.0443
 5266SOL     OW21061   5.123   1.507   2.394 -0.2314 -0.1448  0.3913
 5266SOL    HW121062   5.161   1.496   2.307 -0.0687 -0.8162  0.5367
 5266SOL    HW221063   5.040   1.460   2.390 -0.4837  0.2969  0.4340
 5266SOL     MW21064   5.117   1.499   2.382 -0.2429 -0.1742  0.4154
 5267SOL     OW21065   0.249   0.172   2.423  0.2069  0.1133  0.1676
 5267SOL    HW121066   0.319   0.236   2.422  0.4418 -0.1243  0.7690
 5267SOL    HW221067   0.240   0.144   2.332 -0.0367  1.1361 -0.1310
 5267SOL     MW21068   0.257   0.176   2.411  0.2058  0.2138  0.2063
 5268SOL     OW21069   4.831   3.871   1.189 -0.2254  0.0093 -0.4211
 5268SOL    HW121070   4.841   3.895   1.097 -1.0133  0.8541 -0.3027
 5268SOL    HW221071   4.852   3.950   1.238 -2.6554  0.4842 -0.0090
 5268SOL     MW21072   4.835   3.884   1.184 -0.6373  0.1782 -0.3532
 5269SOL     OW21073   1.073   3.371   5.118  0.6470  0.2387  0.0775
 5269SOL    HW121074   1.148   3.397   5.064  1.2883  2.1947  1.7850
 5269SOL    HW221075   1.003   3.355   5.055  2.3925 -1.4986 -1.5638
 5269SOL     MW21076   1.074   3.372   5.103  0.9525  0.2667  0.0860
 5270SOL     OW21077   3.190   2.245   4.713  0.3747 -0.2743  0.2957
 5270SOL    HW121078   3.155   2.239   4.625 -1.1602 -0.8593  0.9079
 5270SOL    HW221079   3.149   2.172   4.760  1.1976 -0.0070  1.4791
 5270SOL     MW21080   3.181   2.235   4.708  0.2836 -0.3150  0.5256
 5271SOL     OW21081   4.079   3.516   1.139 -0.2716 -0.0565  0.1990
 5271SOL    HW121082   4.100   3.430   1.174  0.5907 -0.3900 -1.0367
 5271SOL    HW221083   4.008   3.500   1.077 -1.2874  0.4105  1.2069
 5271SOL     MW21084   4.073   3.503   1.135 -0.2913 -0.0394  0.1698
 5272SOL     OW21085   3.690   2.408   4.877 -0.5764  0.2945  0.0415
 5272SOL    HW121086   3.607   2.389   4.834 -0.2273 -1.0172 -0.0864
 5272SOL    HW221087   3.746   2.443   4.807 -1.3971  2.5121  0.3940
 5272SOL     MW21088   3.687   2.410   4.863 -0.6367  0.4105  0.0702
 5273SOL     OW21089   1.089   1.875   1.425  0.2481  0.5508  0.1353
 5273SOL    HW121090   1.178   1.842   1.413  0.3449  0.9506 -0.2480
 5273SOL    HW221091   1.092   1.924   1.507 -0.2731 -1.6845  1.6165
 5273SOL     MW21092   1.101   1.877   1.434  0.1938  0.3158  0.2758
 5274SOL     OW21093   2.054   4.159   3.783  0.4574 -0.1784 -0.1916
 5274SOL    HW121094   2.073   4.238   3.833  2.8694 -1.2065  0.6652
 5274SOL    HW221095   1.958   4.150   3.788  0.1927  2.2253  0.3148
 5274SOL     MW21096   2.044   4.168   3.790  0.7323 -0.0023 -0.0171
 5275SOL     OW21097   4.048   0.285   4.912 -0.6164 -0.1367 -0.8111
 5275SOL    HW121098   4.044   0.308   4.819 -0.2938  1.8606 -0.3662
 5275SOL    HW221099   3.956   0.276   4.939 -0.7099 -0.7695 -1.3114
 5275SOL     MW21100   4.035   0.286   4.903 -0.5871  0.0380 -0.8182
 5276SOL     OW21101   2.919   0.576   4.731  0.1048  0.4027 -0.5331
 5276SOL    HW121102   2.953   0.491   4.700 -0.4238  0.1661 -0.4882
 5276SOL    HW221103   2.948   0.638   4.665  0.7719  0.2413 -0.4022
 5276SOL     MW21104   2.927   0.573   4.718  0.1225  0.3517 -0.5106
 5277SOL     OW21105   0.503   1.212   1.837 -0.0402 -0.2441  0.3058
 5277SOL    HW121106   0.445   1.153   1.787 -0.9471 -0.0038  1.0418
 5277SOL    HW221107   0.576   1.228   1.778 -0.6859 -0.6138 -0.6392
 5277SOL     MW21108   0.505   1.206   1.823 -0.2389 -0.2607  0.2791
 5278SOL     OW21109   1.703   1.189   1.082 -0.1845 -0.4306 -0.1032
 5278SOL    HW121110   1.753   1.242   1.019  0.1019 -2.4449 -1.6638
 5278SOL    HW221111   1.714   1.235   1.165 -0.2163  2.1255 -1.3845
 5278SOL     MW21112   1.711   1.202   1.084 -0.1519 -0.3612 -0.4670
 5279SOL     OW21113   1.542   0.340   0.061  0.4069 -0.0509  0.2755
 5279SOL    HW121114   1.636   0.320   0.052  0.6906  2.0540 -2.8481
 5279SOL    HW221115   1.540   0.427   0.101 -0.2480 -0.1057  0.3700
 5279SOL     MW21116   1.554   0.349   0.065  0.3594  0.2115 -0.1123
 5280SOL     OW21117   4.124   0.354   3.733 -0.6086  0.0826 -0.8889
 5280SOL    HW121118   4.151   0.298   3.661 -1.2807  0.4969 -1.4697
 5280SOL    HW221119   4.071   0.423   3.693 -1.5496 -0.0436  0.0592
 5280SOL     MW21120   4.121   0.356   3.719 -0.8151  0.1195 -0.8419
 5281SOL     OW21121   2.160   2.634   4.768  0.6468 -0.5793  0.4314
 5281SOL    HW121122   2.219   2.623   4.842  1.3662  0.3446  0.0267
 5281SOL    HW221123   2.153   2.729   4.758 -0.4326 -0.6914  0.0908
 5281SOL     MW21124   2.167   2.645   4.776  0.6007 -0.4754  0.3360
 5282SOL     OW21125   1.205   3.255   1.893  0.0191  0.4092 -0.0295
 5282SOL    HW121126   1.204   3.167   1.855  1.2668 -0.6274  2.1877
 5282SOL    HW221127   1.200   3.314   1.817 -2.9899 -1.4951 -1.4729
 5282SOL     MW21128   1.204   3.252   1.878 -0.2063  0.0327  0.0696
 5283SOL     OW21129   5.007   0.074   2.566 -0.6539  0.2392  0.2498
 5283SOL    HW121130   5.002  -0.004   2.511  0.0976  0.1849  0.2426
 5283SOL    HW221131   4.956   0.052   2.644  1.5454 -1.2611  1.4073
 5283SOL     MW21132   5.000   0.061   2.569 -0.2761  0.0402  0.3970
 5284SOL     OW21133   1.049   4.888   3.524  0.3899  0.3399  0.5280
 5284SOL    HW121134   1.036   4.945   3.448  0.1547  1.5923  1.4814
 5284SOL    HW221135   1.131   4.842   3.504  1.5733  2.3357  0.5018
 5284SOL     MW21136   1.058   4.889   3.511  0.5113  0.7557  0.6467
 5285SOL     OW21137   3.016   1.021   3.062 -0.2102  0.5753 -0.1301
 5285SOL    HW121138   3.060   0.936   3.061  1.5277  1.4173 -0.0560
 5285SOL    HW221139   2.964   1.021   2.981  0.6900 -0.1239 -0.7436
 5285SOL     MW21140   3.015   1.010   3.051  0.1275  0.5936 -0.1992
 5286SOL     OW21141   3.852   0.208   0.070  0.1269  0.5592 -0.0097
 5286SOL    HW121142   3.882   0.191  -0.019  2.4873  3.0480  0.1491
 5286SOL    HW221143   3.920   0.170   0.126 -0.1150  1.0241  0.6149
 5286SOL     MW21144   3.865   0.201   0.066  0.3981  0.9373  0.0906
 5287SOL     OW21145   3.543   4.819   3.540 -0.2852  0.0040 -0.0535
 5287SOL    HW121146   3.559   4.782   3.627  1.7294  1.2974  0.2042
 5287SOL    HW221147   3.478   4.888   3.555 -0.5339 -0.2986  0.2764
 5287SOL     MW21148   3.537   4.823   3.553 -0.0591  0.1308  0.0217
 5288SOL     OW21149   0.837   0.670   2.668  0.3876  0.4296 -0.2899
 5288SOL    HW121150   0.904   0.678   2.737 -0.2421  0.4997  0.3285
 5288SOL    HW221151   0.841   0.754   2.622 -1.6319  1.8924  1.9573
 5288SOL     MW21152   0.846   0.682   2.671  0.0485  0.6259  0.0770
 5289SOL     OW21153   3.298   0.551   2.502 -0.0656  0.9247 -0.3908
 5289SOL    HW121154   3.342   0.514   2.426 -1.6682 -1.3600 -0.3111
 5289SOL    HW221155   3.205   0.543   2.482 -0.5687 -0.4919  2.0525
 5289SOL     MW21156   3.292   0.545   2.490 -0.3351  0.4509 -0.0678
 5290SOL     OW21157   3.629   1.024   4.362 -0.1868  0.3828  0.0582
 5290SOL    HW121158   3.692   0.957   4.336  1.5180  1.8542  0.1423
 5290SOL    HW221159   3.580   1.044   4.282  0.9625  0.7250 -0.5776
 5290SOL     MW21160   3.631   1.018   4.348  0.1786  0.6150 -0.0124
 5291SOL     OW21161   0.347   4.251   2.035  0.1566 -0.3755  0.1382
 5291SOL    HW121162   0.389   4.334   2.058 -0.6830 -0.4393  2.0630
 5291SOL    HW221163   0.416   4.186   2.042  0.1266 -0.2612  1.7535
 5291SOL     MW21164   0.361   4.253   2.039  0.0453 -0.3691  0.5914
 5292SOL     OW21165   0.173   4.540   2.407  0.2191 -0.5318  0.3527
 5292SOL    HW121166   0.190   4.579   2.322 -1.5685 -1.0770 -0.2963
 5292SOL    HW221167   0.237   4.469   2.414  2.0414  1.0632  0.6045
 5292SOL     MW21168   0.183   4.536   2.397  0.2236 -0.3974  0.3018
 5293SOL     OW21169   4.298   4.998   1.667 -0.3778  0.2787  0.1107
 5293SOL    HW121170   4.382   4.995   1.622  0.5174 -0.0403  1.7448
 5293SOL    HW221171   4.277   4.907   1.686 -1.4119  0.3052 -0.8186
 5293SOL     MW21172   4.306   4.986   1.664 -0.3956  0.2413  0.2010
 5294SOL     OW21173   3.011   2.728   4.294  0.6338 -0.1894 -0.3454
 5294SOL    HW121174   2.986   2.679   4.216  1.0786 -2.1001  0.6529
 5294SOL    HW221175   3.079   2.788   4.263  1.1384 -1.2385 -1.3529
 5294SOL     MW21176   3.017   2.730   4.280  0.7553 -0.5683 -0.3466
 5295SOL     OW21177   1.086   3.162   0.495  0.1876 -0.0825 -0.1221
 5295SOL    HW121178   1.174   3.183   0.527 -0.6516  2.1543  0.9133
 5295SOL    HW221179   1.071   3.225   0.424 -0.1652 -1.2430 -1.1241
 5295SOL     MW21180   1.095   3.173   0.490  0.0350  0.0553 -0.1178
 5296SOL     OW21181   1.363   0.987   1.473 -0.2782 -0.4597  0.3773
 5296SOL    HW121182   1.382   1.074   1.508 -0.7091 -0.7018  1.2310
 5296SOL    HW221183   1.308   1.004   1.396  0.7924  0.0787 -0.2985
 5296SOL     MW21184   1.358   1.000   1.467 -0.1963 -0.4218  0.4000
 5297SOL     OW21185   1.331   1.974   0.794 -0.4386  0.4656 -0.2236
 5297SOL    HW121186   1.414   1.933   0.768 -0.1390  1.6777 -1.2418
 5297SOL    HW221187   1.356   2.055   0.837 -1.0836  0.4833  0.1369
 5297SOL     MW21188   1.345   1.979   0.796 -0.4828  0.6230 -0.3078
 5298SOL     OW21189   2.810   2.528   3.704  0.2221  0.0991  0.4463
 5298SOL    HW121190   2.741   2.494   3.760  0.5325  0.5510  1.1058
 5298SOL    HW221191   2.882   2.550   3.763  0.5836  0.5225 -0.1272
 5298SOL     MW21192   2.811   2.526   3.718  0.3081  0.2112  0.4573
 5299SOL     OW21193   0.318   3.106   3.351 -0.3958 -0.2335  0.0889
 5299SOL    HW121194   0.259   3.093   3.277  0.1914  1.5860 -0.7500
 5299SOL    HW221195   0.294   3.192   3.386  0.9472  0.0077  0.4870
 5299SOL     MW21196   0.307   3.116   3.346 -0.1487  0.0303  0.0325
 5300SOL     OW21197   2.099   5.154   4.152  0.0685  0.1166  0.3247
 5300SOL    HW121198   2.079   5.234   4.103 -0.3056  0.7557  1.4815
 5300SOL    HW221199   2.014   5.121   4.181  0.1976 -0.8839 -0.3976
 5300SOL     MW21200   2.086   5.160   4.149  0.0371  0.0703  0.3803
 5301SOL     OW21201   4.992   2.462   2.590 -0.0531 -0.1728 -0.2062
 5301SOL    HW121202   4.978   2.406   2.666 -0.4653  0.1052 -0.0707
 5301SOL    HW221203   4.911   2.453   2.539 -0.8880  1.6357  0.6962
 5301SOL     MW21204   4.980   2.454   2.593 -0.2127  0.0943 -0.0733
 5302SOL     OW21205   0.429   4.777   3.520 -0.5650 -0.0730  0.8882
 5302SOL    HW121206   0.457   4.685   3.521  0.4038  0.2122  1.6732
 5302SOL    HW221207   0.388   4.789   3.434  1.7655 -0.5341 -0.3793
 5302SOL     MW21208   0.427   4.767   3.509 -0.1427 -0.0955  0.8264
 5303SOL     OW21209   5.123   4.075   4.763 -0.6030  0.2282 -0.0599
 5303SOL    HW121210   5.139   4.017   4.838 -0.1541 -0.7917 -0.9227
 5303SOL    HW221211   5.050   4.034   4.716 -2.1595  1.8529  0.7780
 5303SOL     MW21212   5.116   4.062   4.767 -0.7448  0.3056 -0.0631
 5304SOL     OW21213   2.149   0.837   2.518  0.0072  0.3159  0.3204
 5304SOL    HW121214   2.200   0.843   2.599  0.5321  0.1035  0.0079
 5304SOL    HW221215   2.060   0.816   2.547 -0.1331  1.6625  0.9401
 5304SOL     MW21216   2.144   0.835   2.532  0.0565  0.4611  0.3597
 5305SOL     OW21217   0.230   4.487   3.658  0.1248  0.4238 -0.1405
 5305SOL    HW121218   0.145   4.498   3.700  0.3837 -1.0184  0.8431
 5305SOL    HW221219   0.231   4.550   3.587 -0.4572  2.7703  1.8280
 5305SOL     MW21220   0.219   4.496   3.655  0.0834  0.5396  0.2374
 5306SOL     OW21221   2.814   3.358   3.197 -0.0602  0.0612 -0.2195
 5306SOL    HW121222   2.723   3.384   3.208 -0.4425 -0.2861 -2.2411
 5306SOL    HW221223   2.863   3.440   3.196 -0.3063  0.2399  1.0085
 5306SOL     MW21224   2.809   3.372   3.198 -0.1406  0.0396 -0.3211
 5307SOL     OW21225   3.630   5.339   0.113 -0.2803  0.0074 -0.2743
 5307SOL    HW121226   3.557   5.363   0.170 -0.0641 -0.3168  0.1524
 5307SOL    HW221227   3.633   5.408   0.047 -0.8649  0.1120 -0.2005
 5307SOL     MW21228   3.621   5.351   0.112 -0.3275 -0.0207 -0.2103
 5308SOL     OW21229   3.813   1.574   5.223  0.1891  0.4241 -0.0981
 5308SOL    HW121230   3.895   1.537   5.257 -0.1085 -0.1589  0.0009
 5308SOL    HW221231   3.813   1.664   5.254  1.8857  1.1685 -1.9806
 5308SOL     MW21232   3.824   1.580   5.231  0.3682  0.4448 -0.3264
 5309SOL     OW21233   4.950   0.918   3.905 -0.4419 -0.7500  0.3265
 5309SOL    HW121234   4.992   1.002   3.886  2.3089 -1.8443  1.0786
 5309SOL    HW221235   4.926   0.924   3.997 -0.9748 -0.5111  0.1742
 5309SOL     MW21236   4.953   0.929   3.914 -0.1580 -0.8595  0.4033
 5310SOL     OW21237   0.429   4.072   0.528  0.0536  0.4433 -0.6881
 5310SOL    HW121238   0.435   4.053   0.622  0.6211  0.7932 -0.6445
 5310SOL    HW221239   0.507   4.125   0.510  1.0653 -1.3390 -1.7711
 5310SOL     MW21240   0.440   4.076   0.538  0.2558  0.2599 -0.8212
 5311SOL     OW21241   3.525   3.788   4.166 -0.1445  0.0017 -0.2623
 5311SOL    HW121242   3.513   3.876   4.203 -0.5599  0.5203 -1.5677
 5311SOL    HW221243   3.462   3.734   4.213 -1.3317  0.8444 -0.8179
 5311SOL     MW21244   3.515   3.793   4.177 -0.3496  0.1760 -0.5006
 5312SOL     OW21245   2.107   4.086   2.900  0.2595 -0.1308  0.3488
 5312SOL    HW121246   2.068   4.145   2.965 -0.0436 -0.6064  0.6091
 5312SOL    HW221247   2.194   4.121   2.884 -0.2577  0.9227 -0.2045
 5312SOL     MW21248   2.113   4.098   2.907  0.1545 -0.0568  0.3113
 5313SOL     OW21249   2.770   0.895   2.450  0.4615 -0.1659 -0.0800
 5313SOL    HW121250   2.702   0.830   2.429 -0.9879  1.8894 -2.3754
 5313SOL    HW221251   2.837   0.881   2.383  1.0166 -0.4556  0.5343
 5313SOL     MW21252   2.770   0.885   2.439  0.3470  0.0601 -0.2952
 5314SOL     OW21253   3.475   4.676   4.688  0.0242  0.3383 -0.2042
 5314SOL    HW121254   3.523   4.710   4.763 -1.7756  2.2819  0.1761
 5314SOL    HW221255   3.491   4.741   4.619 -1.3359  0.6149 -0.2964
 5314SOL     MW21256   3.483   4.689   4.688 -0.3803  0.6225 -0.1673
 5315SOL     OW21257   3.853   4.527   1.662 -0.4024  0.3039  0.0369
 5315SOL    HW121258   3.859   4.592   1.592  0.9332  1.1553  0.9002
 5315SOL    HW221259   3.905   4.453   1.631 -2.2394 -0.5883 -1.1181
 5315SOL     MW21260   3.860   4.526   1.649 -0.4666  0.2987 -0.0004
 5316SOL     OW21261   3.844   0.839   4.287  0.1439 -0.0962  0.2560
 5316SOL    HW121262   3.838   0.851   4.192 -0.4685 -0.0704  0.2952
 5316SOL    HW221263   3.936   0.855   4.307 -0.0047  1.4382 -0.1275
 5316SOL     MW21264   3.855   0.842   4.278  0.0465  0.1035  0.2119
 5317SOL     OW21265   2.022   0.441   2.246  0.3101 -0.5814 -0.2549
 5317SOL    HW121266   2.089   0.509   2.253 -0.1150 -0.1566 -0.1938
 5317SOL    HW221267   1.963   0.472   2.177  0.3525 -1.1046 -0.5279
 5317SOL     MW21268   2.023   0.454   2.238  0.2611 -0.5940 -0.2820
 5318SOL     OW21269   1.329   0.033   3.587  0.0470 -0.2854  0.0516
 5318SOL    HW121270   1.419   0.013   3.563  0.0386 -0.6603  0.3361
 5318SOL    HW221271   1.319  -0.001   3.676 -0.3149 -0.0691  0.0967
 5318SOL     MW21272   1.339   0.026   3.595 -0.0004 -0.3057  0.0938
 5319SOL     OW21273   3.323   1.723   4.333  0.4856 -0.2328  0.2802
 5319SOL    HW121274   3.309   1.788   4.402 -1.6201  0.0908 -0.3981
 5319SOL    HW221275   3.386   1.661   4.371  1.1631  1.1991  1.6012
 5319SOL     MW21276   3.329   1.723   4.346  0.3028 -0.0080  0.3625
 5320SOL     OW21277   1.520   2.440   3.334 -0.0527 -0.0930  0.6013
 5320SOL    HW121278   1.491   2.521   3.376 -0.5460 -0.3062  0.6750
 5320SOL    HW221279   1.462   2.372   3.369  0.1671 -0.4296  0.3189
 5320SOL     MW21280   1.509   2.442   3.344 -0.0877 -0.1634  0.5746
 5321SOL     OW21281   4.276   2.741   0.053 -0.2862  0.0557 -0.2111
 5321SOL    HW121282   4.234   2.810   0.103 -1.5024 -0.2599 -0.7536
 5321SOL    HW221283   4.369   2.751   0.071 -0.4832  1.5293  0.0871
 5321SOL     MW21284   4.282   2.751   0.062 -0.4671  0.2039 -0.2423
 5322SOL     OW21285   0.217   2.853   3.429  0.4904 -0.3069 -0.2456
 5322SOL    HW121286   0.275   2.810   3.492 -0.0640  2.6055  2.5486
 5322SOL    HW221287   0.262   2.936   3.409 -0.6856  0.0608 -1.4834
 5322SOL     MW21288   0.230   2.858   3.435  0.2689  0.1130 -0.0464
 5323SOL     OW21289   1.007   5.285   2.436  0.1029  0.1043  0.1350
 5323SOL    HW121290   1.016   5.370   2.480 -1.0183  0.6970 -0.7241
 5323SOL    HW221291   1.040   5.221   2.500  1.4723  1.2221  0.5886
 5323SOL     MW21292   1.012   5.288   2.450  0.1347  0.3232  0.0831
 5324SOL     OW21293   1.922   3.306   2.305 -0.1678  0.2506 -0.2618
 5324SOL    HW121294   1.844   3.362   2.307  0.6208  1.3880 -0.4951
 5324SOL    HW221295   1.969   3.329   2.385  0.0017 -0.3261 -0.1941
 5324SOL     MW21296   1.918   3.316   2.316 -0.0452  0.3224 -0.2830
 5325SOL     OW21297   3.473   3.189   1.224 -0.1059 -0.3074  0.0160
 5325SOL    HW121298   3.545   3.251   1.210 -0.4862 -0.1241 -1.3086
 5325SOL    HW221299   3.507   3.125   1.287  0.9913  0.1186 -0.1292
 5325SOL     MW21300   3.487   3.189   1.230 -0.0141 -0.2294 -0.1722
 5326SOL     OW21301   4.154   3.210   4.227  0.2449 -0.0078 -0.1594
 5326SOL    HW121302   4.146   3.288   4.172 -2.2974  1.3116  1.8771
 5326SOL    HW221303   4.087   3.150   4.193  1.3363 -0.8480 -0.9109
 5326SOL     MW21304   4.144   3.212   4.215  0.0592  0.0535  0.0051
 5327SOL     OW21305   4.034   4.704   1.146  0.5984  0.0780 -0.2768
 5327SOL    HW121306   4.070   4.684   1.059  2.6457 -0.4298  0.6106
 5327SOL    HW221307   3.996   4.621   1.175 -0.8927  0.4736 -0.9970
 5327SOL     MW21308   4.034   4.691   1.138  0.6696  0.0637 -0.2554
 5328SOL     OW21309   4.771   4.035   1.558 -0.2228 -0.4753  0.7587
 5328SOL    HW121310   4.681   4.042   1.524 -0.2762  0.8909  1.1167
 5328SOL    HW221311   4.826   4.053   1.482 -0.2602 -0.7587  0.6628
 5328SOL     MW21312   4.766   4.038   1.544 -0.2344 -0.3367  0.7922
 5329SOL     OW21313   2.373   4.830   4.993 -0.2594 -0.1882 -0.4925
 5329SOL    HW121314   2.445   4.770   4.971  0.0398 -0.4094  1.0092
 5329SOL    HW221315   2.390   4.908   4.940  1.4937  0.0231  0.3200
 5329SOL     MW21316   2.384   4.832   4.983  0.0034 -0.1895 -0.1962
 5330SOL     OW21317   3.550   3.859   4.826 -0.0353  0.0575  0.5514
 5330SOL    HW121318   3.634   3.903   4.837  0.8150 -1.2678 -0.3553
 5330SOL    HW221319   3.523   3.835   4.914  0.7486  0.1166  0.8089
 5330SOL     MW21320   3.557   3.862   4.838  0.1739 -0.1046  0.4683
 5331SOL     OW21321   5.392   3.746   1.140  0.9112 -0.1219  0.1773
 5331SOL    HW121322   5.329   3.679   1.114  1.8637 -0.9836  0.0313
 5331SOL    HW221323   5.364   3.773   1.228 -1.3627  1.6240 -0.9918
 5331SOL     MW21324   5.381   3.741   1.148  0.7420 -0.0087  0.0090
 5332SOL     OW21325   0.588   5.447   5.015 -0.3157 -0.5766 -0.1966
 5332SOL    HW121326   0.533   5.457   5.093 -2.7561  0.7563 -1.9297
 5332SOL    HW221327   0.581   5.354   4.993  2.4057 -1.5458  2.3991
 5332SOL     MW21328   0.580   5.437   5.022 -0.2797 -0.5301 -0.0862
 5333SOL     OW21329   3.502   5.458   1.734 -0.2340 -0.2744  0.7170
 5333SOL    HW121330   3.451   5.381   1.709 -1.2169 -0.1158  2.1365
 5333SOL    HW221331   3.440   5.517   1.776  0.6340  1.0307  0.2446
 5333SOL     MW21332   3.488   5.456   1.736 -0.2487 -0.0870  0.8383
 5334SOL     OW21333   0.801   3.967   5.005  0.4986 -0.0212  0.5593
 5334SOL    HW121334   0.864   4.005   5.068  0.8578 -1.2885  0.9961
 5334SOL    HW221335   0.839   3.882   4.981  0.0804  0.1905 -0.9593
 5334SOL     MW21336   0.814   3.961   5.010  0.4911 -0.1563  0.4208
 5335SOL     OW21337   5.415   1.340   4.140 -0.3370 -0.1293  0.0081
 5335SOL    HW121338   5.379   1.427   4.124 -0.1306 -0.4271 -2.5986
 5335SOL    HW221339   5.510   1.351   4.131 -0.3539 -0.7135 -1.1488
 5335SOL     MW21340   5.423   1.352   4.136 -0.3128 -0.2422 -0.4737
 5336SOL     OW21341   2.374   3.054   4.790 -0.1879 -0.4113  0.3677
 5336SOL    HW121342   2.454   3.087   4.747 -0.4447 -1.0586 -0.6272
 5336SOL    HW221343   2.311   3.126   4.781  0.0043 -0.2414  0.3612
 5336SOL     MW21344   2.376   3.068   4.784 -0.1962 -0.4724  0.2395
 5337SOL     OW21345   3.104   2.346   2.613  0.4090 -0.0093 -0.4802
 5337SOL    HW121346   3.016   2.346   2.652  0.4304  0.4907 -0.4297
 5337SOL    HW221347   3.140   2.431   2.635  1.1115 -0.4113 -0.0469
 5337SOL     MW21348   3.097   2.357   2.621  0.5017  0.0033 -0.4182
 5338SOL     OW21349   2.469   1.261   0.061  0.1172 -0.2439 -0.1712
 5338SOL    HW121350   2.438   1.263   0.152  0.2592  1.3974 -0.1373
 5338SOL    HW221351   2.391   1.282   0.009  0.3550  0.2540 -0.3282
 5338SOL     MW21352   2.455   1.264   0.066  0.1658  0.0300 -0.1869
 5339SOL     OW21353   0.701   3.904   3.225 -0.5129  0.0834 -0.2022
 5339SOL    HW121354   0.696   3.842   3.152 -1.6532 -0.4585  0.3203
 5339SOL    HW221355   0.721   3.988   3.183  0.8823 -0.5873 -0.9284
 5339SOL     MW21356   0.703   3.907   3.210 -0.4803 -0.0718 -0.2282
 5340SOL     OW21357   1.728   3.648   5.057 -0.1107 -0.3610 -0.0535
 5340SOL    HW121358   1.788   3.636   5.131  0.2516  0.1968 -0.2530
 5340SOL    HW221359   1.726   3.563   5.013  0.2001 -0.4994  0.2001
 5340SOL     MW21360   1.735   3.636   5.061 -0.0245 -0.3073 -0.0466
 5341SOL     OW21361   2.459   0.330   0.945  0.0085 -0.0439  0.3141
 5341SOL    HW121362   2.446   0.410   0.994 -0.8574  0.9785 -1.4922
 5341SOL    HW221363   2.392   0.270   0.976  0.2298  0.1513  1.1869
 5341SOL     MW21364   2.449   0.332   0.955 -0.0740  0.1120  0.1946
 5342SOL     OW21365   3.335   0.263   2.558  0.1172 -0.1498  0.5732
 5342SOL    HW121366   3.294   0.231   2.639  1.0848 -0.3877  0.9801
 5342SOL    HW221367   3.318   0.357   2.559  0.9190  0.0137  1.5557
 5342SOL     MW21368   3.327   0.271   2.569  0.3437 -0.1593  0.7511
 5343SOL     OW21369   5.431   0.124   4.896  0.2320 -0.3066 -0.0362
 5343SOL    HW121370   5.382   0.113   4.977 -0.3815  1.1830 -0.1673
 5343SOL    HW221371   5.521   0.097   4.918 -0.2610 -1.4406  0.6721
 5343SOL     MW21372   5.436   0.119   4.909  0.0904 -0.2611  0.0377
 5344SOL     OW21373   5.302   3.352   2.716  0.1482 -0.0261 -0.2207
 5344SOL    HW121374   5.322   3.276   2.772  1.7996 -0.7940 -1.7511
 5344SOL    HW221375   5.279   3.421   2.777 -1.0186 -1.6278  1.2615
 5344SOL     MW21376   5.302   3.351   2.731  0.2102 -0.3294 -0.2269
 5345SOL     OW21377   1.338   4.941   5.471 -0.1658 -0.0158 -0.2140
 5345SOL    HW121378   1.262   4.881   5.470  0.6045 -1.0249  0.2572
 5345SOL    HW221379   1.356   4.956   5.378 -1.1646  0.5316 -0.3337
 5345SOL     MW21380   1.330   4.935   5.459 -0.1950 -0.0749 -0.1690
 5346SOL     OW21381   1.673   4.117   1.907 -0.3750  0.4049  0.0145
 5346SOL    HW121382   1.759   4.144   1.876 -0.0473 -0.7369 -0.1034
 5346SOL    HW221383   1.681   4.113   2.002  0.2032 -1.2954 -0.0844
 5346SOL     MW21384   1.685   4.120   1.915 -0.2590  0.0410 -0.0132
 5347SOL     OW21385   2.318   3.410   0.634 -0.3866 -0.3105 -0.9073
 5347SOL    HW121386   2.287   3.489   0.677 -0.0187 -1.0833  0.8524
 5347SOL    HW221387   2.239   3.361   0.611 -0.5830  0.0215 -0.9332
 5347SOL     MW21388   2.304   3.414   0.636 -0.3646 -0.3669 -0.6853
 5348SOL     OW21389   2.013   5.164   3.160 -0.0080 -0.0569 -0.4095
 5348SOL    HW121390   2.052   5.216   3.090 -1.6521  1.3523 -0.3349
 5348SOL    HW221391   2.087   5.115   3.198  1.2602  0.7812 -1.7050
 5348SOL     MW21392   2.027   5.164   3.156 -0.0562  0.2308 -0.5658
 5349SOL     OW21393   5.087   3.976   0.364  0.4122  0.0909  0.3262
 5349SOL    HW121394   5.082   4.072   0.367  0.5703  0.0808  1.4624
 5349SOL    HW221395   5.175   3.955   0.396  0.4279 -0.4274 -0.0523
 5349SOL     MW21396   5.097   3.986   0.369  0.4345  0.0232  0.4232
 5350SOL     OW21397   4.865   1.717   1.867 -0.2205  0.5534  0.0195
 5350SOL    HW121398   4.955   1.695   1.845 -1.1456 -0.4862 -3.2646
 5350SOL    HW221399   4.823   1.734   1.783 -3.4186 -0.3274  1.2810
 5350SOL     MW21400   4.871   1.716   1.853 -0.7483  0.3075 -0.2395
 5351SOL     OW21401   2.140   4.809   2.812 -0.2562 -0.7217 -0.4397
 5351SOL    HW121402   2.198   4.885   2.802  1.3292 -1.9082 -0.7250
 5351SOL    HW221403   2.200   4.736   2.829 -1.7203 -1.9488 -0.3825
 5351SOL     MW21404   2.155   4.810   2.813 -0.2407 -1.0307 -0.4689
 5352SOL     OW21405   4.667   0.667   2.756  0.2493  0.2727  0.2229
 5352SOL    HW121406   4.622   0.659   2.672  2.0168 -0.3915 -0.7343
 5352SOL    HW221407   4.626   0.601   2.812 -1.3249  1.1101  0.0780
 5352SOL     MW21408   4.656   0.657   2.752  0.2740  0.2949  0.0818
 5353SOL     OW21409   2.794   1.152   1.288 -0.0707 -0.7206 -0.1341
 5353SOL    HW121410   2.812   1.182   1.377  1.8038 -2.2656  0.0846
 5353SOL    HW221411   2.700   1.134   1.286 -0.2593 -0.0017  1.2870
 5353SOL     MW21412   2.784   1.154   1.299  0.1451 -0.8263  0.0758
 5354SOL     OW21413   4.199   4.555   2.854  0.0599 -0.3784 -0.2796
 5354SOL    HW121414   4.197   4.649   2.831 -0.3916 -0.6462 -1.4209
 5354SOL    HW221415   4.111   4.536   2.886  0.4779 -0.1769  1.0505
 5354SOL     MW21416   4.187   4.565   2.855  0.0556 -0.3869 -0.2554
 5355SOL     OW21417   2.871   2.105   3.653  0.5785 -0.4466 -0.3912
 5355SOL    HW121418   2.821   2.139   3.728  1.0876  0.5001 -0.4817
 5355SOL    HW221419   2.823   2.135   3.576  0.5332 -0.7009 -0.4651
 5355SOL     MW21420   2.858   2.113   3.653  0.6379 -0.3580 -0.4123
 5356SOL     OW21421   1.505   4.885   4.612 -0.2063  0.8959 -0.3505
 5356SOL    HW121422   1.424   4.888   4.663 -0.7449  1.2296 -1.2100
 5356SOL    HW221423   1.492   4.812   4.551  1.6180 -1.5130  1.8830
 5356SOL     MW21424   1.493   4.876   4.610 -0.0417  0.6303 -0.1746
 5357SOL     OW21425   2.080   2.112   4.746 -0.1484 -0.5081  0.0593
 5357SOL    HW121426   2.101   2.195   4.788  0.8017 -1.8479  2.4144
 5357SOL    HW221427   2.148   2.102   4.678 -2.0812  1.9789 -2.4883
 5357SOL     MW21428   2.092   2.121   4.742 -0.2742 -0.3613  0.0346
 5358SOL     OW21429   4.154   1.789   5.093  0.4286 -0.2526 -0.1576
 5358SOL    HW121430   4.203   1.749   5.164  2.6741  1.5746 -0.5503
 5358SOL    HW221431   4.173   1.734   5.017  0.4632 -0.5270  0.0480
 5358SOL     MW21432   4.163   1.777   5.092  0.7205 -0.0538 -0.1816
 5359SOL     OW21433   1.481   0.582   2.355  0.5335  0.4997 -0.0245
 5359SOL    HW121434   1.547   0.647   2.330  0.1959  0.6804 -0.4553
 5359SOL    HW221435   1.531   0.502   2.370  0.7068  0.2522 -1.7688
 5359SOL     MW21436   1.496   0.580   2.354  0.5125  0.4912 -0.3030
 5360SOL     OW21437   0.675   0.449   3.750  0.2803 -0.3422 -0.2270
 5360SOL    HW121438   0.753   0.424   3.800  1.8237 -2.3511 -3.3099
 5360SOL    HW221439   0.621   0.370   3.747 -0.7519  0.3383 -0.0699
 5360SOL     MW21440   0.678   0.436   3.756  0.3457 -0.5123 -0.6015
 5361SOL     OW21441   2.376   0.578   1.074 -0.4310 -0.1519  0.0163
 5361SOL    HW121442   2.318   0.595   1.000  0.9906  0.9924 -0.8901
 5361SOL    HW221443   2.409   0.665   1.099  0.6514 -0.7371  0.6896
 5361SOL     MW21444   2.373   0.591   1.068 -0.1105 -0.0803 -0.0135
 5362SOL     OW21445   2.023   3.812   3.443 -0.0515  0.1923 -0.2486
 5362SOL    HW121446   2.017   3.726   3.403  0.2632 -1.4050  2.8631
 5362SOL    HW221447   1.934   3.846   3.441 -0.7799 -1.5232  1.0885
 5362SOL     MW21448   2.011   3.806   3.437 -0.1045 -0.2318  0.3209
 5363SOL     OW21449   1.510   1.249   5.256  0.6829 -0.2754  0.2395
 5363SOL    HW121450   1.553   1.201   5.185  0.0536 -2.3395  1.1639
 5363SOL    HW221451   1.552   1.216   5.336 -0.8095 -0.4478  1.0004
 5363SOL     MW21452   1.521   1.238   5.257  0.4113 -0.5617  0.4553
 5364SOL     OW21453   2.144   3.961   3.957 -0.2463  0.3023 -0.1964
 5364SOL    HW121454   2.086   3.885   3.951 -1.3333  0.9835  1.1431
 5364SOL    HW221455   2.114   4.020   3.889  0.6414 -0.4434 -1.2855
 5364SOL     MW21456   2.133   3.959   3.947 -0.2718  0.2940 -0.1643
 5365SOL     OW21457   4.163   0.452   1.338  0.5239  0.1173 -0.6919
 5365SOL    HW121458   4.156   0.522   1.403 -0.4450  0.4796 -1.1543
 5365SOL    HW221459   4.148   0.495   1.254 -0.9432 -0.7579 -0.9179
 5365SOL     MW21460   4.160   0.466   1.335  0.2121  0.0516 -0.7800
 5366SOL     OW21461   4.433   3.895   2.748  0.7099  0.3181  0.0782
 5366SOL    HW121462   4.380   3.971   2.770  2.1232  0.9320  1.5496
 5366SOL    HW221463   4.449   3.903   2.654  0.5496  1.6483  0.1461
 5366SOL     MW21464   4.428   3.905   2.739  0.8703  0.5670  0.2753
 5367SOL     OW21465   0.742   4.751   4.199 -0.2006 -0.2238 -0.1806
 5367SOL    HW121466   0.684   4.771   4.273 -0.2598  0.2142 -0.3392
 5367SOL    HW221467   0.784   4.835   4.179  1.1879 -0.7279  0.5181
 5367SOL     MW21468   0.740   4.764   4.206 -0.0304 -0.2323 -0.1114
 5368SOL     OW21469   3.758   4.172   1.931 -0.1279  0.2695 -0.5145
 5368SOL    HW121470   3.822   4.120   1.979 -0.5507  0.0109 -0.2254
 5368SOL    HW221471   3.710   4.108   1.878 -0.3556  0.4225 -0.4929
 5368SOL     MW21472   3.760   4.157   1.930 -0.2112  0.2560 -0.4747
 5369SOL     OW21473   4.422   0.506   0.430  0.2921 -0.4634  0.2630
 5369SOL    HW121474   4.382   0.462   0.355 -1.0617 -0.5044  0.9749
 5369SOL    HW221475   4.357   0.572   0.456  1.6151  0.9260  0.1700
 5369SOL     MW21476   4.408   0.509   0.424  0.2881 -0.2908  0.3422
 5370SOL     OW21477   3.552   5.200   4.644  0.3782 -0.4622 -0.4162
 5370SOL    HW121478   3.539   5.177   4.552 -0.5732 -0.4329 -0.3048
 5370SOL    HW221479   3.625   5.145   4.673  1.8402  0.7635 -1.6234
 5370SOL     MW21480   3.559   5.190   4.636  0.4435 -0.3016 -0.5565
 5371SOL     OW21481   3.445   5.047   2.393 -0.2405 -1.0260  0.3313
 5371SOL    HW121482   3.534   5.079   2.379 -0.6779  0.2534  0.3401
 5371SOL    HW221483   3.400   5.061   2.309 -0.7686 -0.5199  0.6922
 5371SOL     MW21484   3.450   5.053   2.381 -0.3640 -0.7974  0.3787
 5372SOL     OW21485   3.259   1.653   2.728 -0.3172  0.6716  0.5084
 5372SOL    HW121486   3.223   1.622   2.646  1.1364  0.1530  0.0314
 5372SOL    HW221487   3.288   1.574   2.774  0.2192  1.0596  0.8550
 5372SOL     MW21488   3.258   1.639   2.724 -0.0624  0.6549  0.4917
 5373SOL     OW21489   3.430   4.937   3.836 -0.2482  0.5840 -0.2812
 5373SOL    HW121490   3.492   5.004   3.866  0.7898 -0.9244  1.0714
 5373SOL    HW221491   3.344   4.980   3.842  0.4745  2.1778 -0.6311
 5373SOL     MW21492   3.427   4.951   3.840 -0.0228  0.5950 -0.1528
 5374SOL     OW21493   0.224   0.485   0.309 -0.1620  0.7166 -0.3229
 5374SOL    HW121494   0.206   0.468   0.217 -0.0737  0.8976 -0.3718
 5374SOL    HW221495   0.281   0.413   0.336  0.9939  1.4452 -0.7755
 5374SOL     MW21496   0.229   0.473   0.301 -0.0027  0.8330 -0.3871
 5375SOL     OW21497   0.353   4.145   4.533  0.1670  0.1757 -0.1937
 5375SOL    HW121498   0.407   4.166   4.458  2.5171 -1.1997  0.9813
 5375SOL    HW221499   0.395   4.068   4.572 -2.4326 -0.7313  1.0744
 5375SOL     MW21500   0.365   4.138   4.529  0.1351 -0.1164  0.1191
 5376SOL     OW21501   3.390   5.408   1.989 -0.3102  0.6848 -0.0338
 5376SOL    HW121502   3.406   5.329   2.041 -1.1824  0.5826  0.0941
 5376SOL    HW221503   3.400   5.480   2.051 -2.6882  0.5010  0.6573
 5376SOL     MW21504   3.393   5.407   2.004 -0.7263  0.6482  0.0710
 5377SOL     OW21505   0.624   0.266   4.046 -0.4963 -0.1847 -0.4478
 5377SOL    HW121506   0.674   0.318   4.110  1.1418 -2.2401  0.0497
 5377SOL    HW221507   0.544   0.241   4.093  1.2116 -2.6701  1.3817
 5377SOL     MW21508   0.620   0.270   4.060 -0.0680 -0.7659 -0.1499
 5378SOL     OW21509   4.572   3.876   4.999  0.1037  0.3373 -0.2855
 5378SOL    HW121510   4.555   3.958   5.046  0.7796  0.7439 -0.7278
 5378SOL    HW221511   4.519   3.811   5.044  0.1035  0.8800  0.5194
 5378SOL     MW21512   4.563   3.878   5.010  0.1902  0.4588 -0.2391
 5379SOL     OW21513   2.494   4.638   4.688 -0.2258 -0.1641 -0.0285
 5379SOL    HW121514   2.542   4.676   4.614 -0.6891  0.1327 -0.1801
 5379SOL    HW221515   2.504   4.543   4.678  1.3964 -0.0914  0.6512
 5379SOL     MW21516   2.501   4.631   4.678 -0.0775 -0.1168  0.0391
 5380SOL     OW21517   1.104   3.288   1.332  0.1364 -0.2166 -0.3205
 5380SOL    HW121518   1.031   3.347   1.348  0.7564  0.1731  1.1976
 5380SOL    HW221519   1.097   3.266   1.239 -1.2793  0.6438 -0.4398
 5380SOL     MW21520   1.094   3.293   1.322  0.0345 -0.0566 -0.1414
 5381SOL     OW21521   1.549   5.306   1.374 -0.0561 -0.0654 -0.2542
 5381SOL    HW121522   1.543   5.383   1.318  0.9436  0.5786  0.4789
 5381SOL    HW221523   1.571   5.342   1.461  0.9930 -1.1970 -0.0203
 5381SOL     MW21524   1.551   5.321   1.378  0.2061 -0.1278 -0.1304
 5382SOL     OW21525   0.757   3.083   5.425 -0.0593  0.6047 -0.3226
 5382SOL    HW121526   0.829   3.142   5.445 -0.8200  0.8531  1.9203
 5382SOL    HW221527   0.714   3.123   5.350  1.6531  0.8405 -1.2393
 5382SOL     MW21528   0.761   3.095   5.418  0.0625  0.6667 -0.1528
 5383SOL     OW21529   2.768   1.153   3.906 -0.2242 -0.0666  0.2219
 5383SOL    HW121530   2.802   1.150   3.995 -0.5017  0.8501  0.3726
 5383SOL    HW221531   2.845   1.147   3.850  0.0523  0.4166  0.5429
 5383SOL     MW21532   2.782   1.152   3.910 -0.2244  0.1126  0.2823
 5384SOL     OW21533   4.546   5.338   2.215  0.2253 -0.1102  0.0509
 5384SOL    HW121534   4.611   5.290   2.164  2.1478  0.4303  1.8242
 5384SOL    HW221535   4.548   5.295   2.301 -1.2281  0.4052  0.3642
 5384SOL     MW21536   4.555   5.326   2.220  0.2854  0.0250  0.3180
 5385SOL     OW21537   3.041   2.402   2.339  0.6191  0.3842  0.6682
 5385SOL    HW121538   2.956   2.364   2.318  0.9244  0.8433 -1.7869
 5385SOL    HW221539   3.044   2.405   2.434 -1.5412 -0.8745  0.8391
 5385SOL     MW21540   3.031   2.397   2.348  0.3817  0.2818  0.3758
 5386SOL     OW21541   0.156   2.791   5.115 -0.3452  0.0764  0.0881
 5386SOL    HW121542   0.103   2.870   5.119 -1.3173 -0.6027  0.9915
 5386SOL    HW221543   0.112   2.729   5.173  0.8693 -0.8499  0.0635
 5386SOL     MW21544   0.144   2.793   5.123 -0.3142 -0.1291  0.2006
 5387SOL     OW21545   2.099   5.307   4.887 -0.0696 -0.2752  0.4242
 5387SOL    HW121546   2.075   5.218   4.910 -1.4739  0.0701  0.3994
 5387SOL    HW221547   2.192   5.302   4.864 -0.0202 -1.6356  0.8394
 5387SOL     MW21548   2.108   5.295   4.887 -0.2430 -0.4052  0.4742
 5388SOL     OW21549   2.330   3.943   5.185 -0.8557 -0.2335  0.1221
 5388SOL    HW121550   2.340   3.860   5.232  1.2548  0.3440  0.7875
 5388SOL    HW221551   2.239   3.969   5.202 -1.4887 -2.2264  0.1425
 5388SOL     MW21552   2.319   3.936   5.193 -0.6666 -0.4147  0.2099
 5389SOL     OW21553   1.703   0.775   1.117  0.0064 -0.1893 -0.2391
 5389SOL    HW121554   1.648   0.748   1.191  0.9726 -0.5140  0.3766
 5389SOL    HW221555   1.693   0.706   1.052  0.3232 -0.6659  0.2109
 5389SOL     MW21556   1.695   0.763   1.118  0.1707 -0.2919 -0.1027
 5390SOL     OW21557   4.418   4.721   3.395  0.0606  0.5896 -0.1779
 5390SOL    HW121558   4.404   4.751   3.485  0.8190 -0.4669  0.3228
 5390SOL    HW221559   4.370   4.638   3.391  2.2736 -0.7929  0.1646
 5390SOL     MW21560   4.410   4.714   3.406  0.4410  0.2774 -0.0700
 5391SOL     OW21561   3.739   0.539   3.877 -0.4927 -0.2809  0.3511
 5391SOL    HW121562   3.782   0.477   3.818  1.0260  0.2613  0.8248
 5391SOL    HW221563   3.672   0.581   3.824  0.1613 -0.5262 -0.6925
 5391SOL     MW21564   3.736   0.537   3.863 -0.2146 -0.2429  0.2782
 5392SOL     OW21565   1.585   4.090   1.404  0.2742  0.5310 -0.0411
 5392SOL    HW121566   1.565   4.000   1.427  1.1879  0.1907 -0.5376
 5392SOL    HW221567   1.677   4.101   1.427 -0.0900  1.6786  1.0309
 5392SOL     MW21568   1.594   4.080   1.410  0.3445  0.6343  0.0326
 5393SOL     OW21569   0.206   0.742   0.911  0.2978  0.5361 -0.1100
 5393SOL    HW121570   0.261   0.676   0.953 -1.0429 -0.4162  0.2166
 5393SOL    HW221571   0.116   0.715   0.932 -0.2797  2.7648  0.4642
 5393SOL     MW21572   0.201   0.730   0.919  0.0523  0.6995  0.0053
 5394SOL     OW21573   3.256   0.193   1.232  0.4186  0.0738 -0.1495
 5394SOL    HW121574   3.226   0.109   1.196 -1.3552  0.2993  0.7024
 5394SOL    HW221575   3.197   0.210   1.305  0.6919  2.1121 -0.3527
 5394SOL     MW21576   3.245   0.184   1.237  0.2265  0.3636 -0.0665
 5395SOL     OW21577   1.295   3.442   4.989 -0.0257 -0.1323  0.3415
 5395SOL    HW121578   1.337   3.392   4.919  0.6376 -0.8565  1.2391
 5395SOL    HW221579   1.265   3.523   4.946  1.7728  0.1646 -0.4573
 5395SOL     MW21580   1.297   3.446   4.974  0.2894 -0.1870  0.3542
 5396SOL     OW21581   0.800   1.090   2.124  0.1533 -0.2227 -0.1669
 5396SOL    HW121582   0.862   1.019   2.104 -0.0644 -0.2106 -0.9215
 5396SOL    HW221583   0.854   1.169   2.125  0.2009 -0.2471 -0.5569
 5396SOL     MW21584   0.815   1.091   2.121  0.1315 -0.2242 -0.3134
 5397SOL     OW21585   4.834   1.666   2.256  0.1912 -0.1634 -0.1292
 5397SOL    HW121586   4.845   1.743   2.200 -0.2695 -1.0389 -1.4571
 5397SOL    HW221587   4.897   1.679   2.327  1.0624  0.7784 -1.0512
 5397SOL     MW21588   4.843   1.678   2.258  0.2438 -0.1549 -0.4172
 5398SOL     OW21589   1.582   2.506   5.148 -0.4352  0.3844 -0.1300
 5398SOL    HW121590   1.623   2.420   5.147 -2.3708 -0.7951 -4.4761
 5398SOL    HW221591   1.495   2.490   5.186 -1.6445 -0.2740 -2.9246
 5398SOL     MW21592   1.576   2.493   5.153 -0.8378  0.1491 -1.0441
 5399SOL     OW21593   2.341   4.979   4.155 -0.5884  0.1272 -0.1749
 5399SOL    HW121594   2.252   5.015   4.147  0.0935  2.2692  1.0431
 5399SOL    HW221595   2.340   4.932   4.239 -0.7670 -0.5673 -0.5544
 5399SOL     MW21596   2.329   4.977   4.165 -0.5239  0.3125 -0.0676
 5400SOL     OW21597   3.691   3.366   3.217  0.3222 -0.4982  0.2480
 5400SOL    HW121598   3.662   3.277   3.199  0.0832 -0.5952  1.0569
 5400SOL    HW221599   3.765   3.355   3.277 -1.0498 -0.1199  2.1071
 5400SOL     MW21600   3.696   3.353   3.222  0.1160 -0.4622  0.5895
 5401SOL     OW21601   3.217   3.406   3.067 -0.1042 -0.3484 -0.7783
 5401SOL    HW121602   3.178   3.402   2.980  0.7840 -0.7444 -1.1801
 5401SOL    HW221603   3.199   3.320   3.105 -1.0349  0.0387 -0.3102
 5401SOL     MW21604   3.210   3.395   3.061 -0.1097 -0.3495 -0.7698
 5402SOL     OW21605   0.373   3.958   3.831  0.0732  0.1721  0.7861
 5402SOL    HW121606   0.439   3.981   3.897 -0.2037  0.7574  0.8723
 5402SOL    HW221607   0.413   3.984   3.747  1.0488 -1.9479  0.5233
 5402SOL     MW21608   0.387   3.965   3.828  0.1627 -0.0244  0.7635
 5403SOL     OW21609   2.516   4.958   3.730 -0.0607 -0.0537  0.1820
 5403SOL    HW121610   2.477   4.877   3.764 -0.5130  0.4343  0.8504
 5403SOL    HW221611   2.478   5.027   3.784  1.6260  0.4658  0.7442
 5403SOL     MW21612   2.506   4.956   3.741  0.0973  0.0753  0.3395
 5404SOL     OW21613   1.989   2.701   1.273 -0.2289  0.3880  0.7025
 5404SOL    HW121614   2.017   2.786   1.309  0.9601  1.0733 -1.6197
 5404SOL    HW221615   1.984   2.643   1.349  1.7924  1.7976  2.0088
 5404SOL     MW21616   1.992   2.705   1.288  0.1820  0.6562  0.5724
 5405SOL     OW21617   4.572   0.607   5.084  0.1246 -0.0289 -0.1784
 5405SOL    HW121618   4.656   0.615   5.128  0.2614 -2.5396  0.1915
 5405SOL    HW221619   4.515   0.565   5.148 -0.3465 -1.6300 -1.5490
 5405SOL     MW21620   4.576   0.603   5.098  0.0818 -0.5553 -0.3065
 5406SOL     OW21621   5.240   4.929   0.725  0.0394 -0.0009  0.2553
 5406SOL    HW121622   5.275   4.922   0.637 -1.6005 -0.8324 -0.3758
 5406SOL    HW221623   5.170   4.864   0.729  0.6946 -0.6888  2.5012
 5406SOL     MW21624   5.235   4.920   0.715 -0.0866 -0.1954  0.4620
 5407SOL     OW21625   1.654   3.012   4.457  0.1767 -0.1971  0.1011
 5407SOL    HW121626   1.631   2.963   4.378 -1.5899  0.6135  0.0670
 5407SOL    HW221627   1.664   2.945   4.525  1.1655 -0.8524 -0.6796
 5407SOL     MW21628   1.652   2.997   4.456  0.0771 -0.1772 -0.0032
 5408SOL     OW21629   1.626   1.596   4.786 -0.5211 -0.0506  0.1380
 5408SOL    HW121630   1.694   1.588   4.719 -1.0851  2.7226 -0.8915
 5408SOL    HW221631   1.544   1.596   4.736 -1.0687  0.0334  1.0284
 5408SOL     MW21632   1.624   1.595   4.771 -0.6634  0.3151  0.1202
 5409SOL     OW21633   4.068   1.340   3.217 -0.3799  0.0320  0.4136
 5409SOL    HW121634   4.145   1.336   3.273  0.1637 -1.5167 -0.3826
 5409SOL    HW221635   4.075   1.424   3.172  0.3454  0.3084  1.0403
 5409SOL     MW21636   4.078   1.350   3.218 -0.2175 -0.1309  0.3919
 5410SOL     OW21637   3.971   4.193   2.372  0.2942  0.4475  0.2885
 5410SOL    HW121638   3.997   4.237   2.454  1.0813  1.9742 -0.7328
 5410SOL    HW221639   4.054   4.174   2.328 -0.1472  0.3839 -0.5354
 5410SOL     MW21640   3.985   4.196   2.377  0.3384  0.6348  0.0523
 5411SOL     OW21641   2.785   2.600   1.163 -0.0525 -0.0030 -0.4918
 5411SOL    HW121642   2.816   2.675   1.213 -0.1212 -0.2192 -0.1167
 5411SOL    HW221643   2.732   2.638   1.093  1.8811  0.4402 -1.8042
 5411SOL     MW21644   2.782   2.614   1.160  0.1863  0.0261 -0.6118
 5412SOL     OW21645   2.742   3.062   2.991 -0.1806 -0.0033  0.2066
 5412SOL    HW121646   2.772   2.980   2.952 -3.1583 -0.5893 -1.1608
 5412SOL    HW221647   2.803   3.127   2.960  1.5529 -1.4971  0.3141
 5412SOL     MW21648   2.753   3.059   2.982 -0.3399 -0.2695  0.0453
 5413SOL     OW21649   3.596   4.528   5.424  0.5075 -0.0989 -1.0853
 5413SOL    HW121650   3.677   4.536   5.474 -0.0165 -0.6744 -0.0877
 5413SOL    HW221651   3.578   4.616   5.391  1.4206  0.0713 -1.1385
 5413SOL     MW21652   3.604   4.540   5.426  0.5573 -0.1508 -0.9644
 5414SOL     OW21653   5.081   0.203   1.563  0.6598  0.1654 -0.1915
 5414SOL    HW121654   5.059   0.273   1.501  0.2109 -0.6895 -1.0090
 5414SOL    HW221655   5.013   0.137   1.550  1.5732 -0.8229 -0.0648
 5414SOL     MW21656   5.069   0.204   1.553  0.7192 -0.0705 -0.2799
 5415SOL     OW21657   3.293   2.728   0.835 -0.3394 -0.2999  0.3481
 5415SOL    HW121658   3.305   2.759   0.924 -0.0419 -0.8895  0.5214
 5415SOL    HW221659   3.251   2.642   0.844 -1.1025  0.0198 -0.1142
 5415SOL     MW21660   3.289   2.721   0.847 -0.3990 -0.3345  0.3111
 5416SOL     OW21661   3.741   0.071   2.802 -0.0153  0.1891  0.0792
 5416SOL    HW121662   3.785   0.089   2.719 -0.1321  0.2480  0.0301
 5416SOL    HW221663   3.786  -0.006   2.837  0.5962  0.6666  0.3645
 5416SOL     MW21664   3.752   0.064   2.796  0.0480  0.2577  0.1094
 5417SOL     OW21665   3.398   0.430   1.479 -0.1611 -0.1270  0.3216
 5417SOL    HW121666   3.436   0.342   1.484  0.6197  0.1206 -0.7914
 5417SOL    HW221667   3.307   0.415   1.455 -0.4711 -0.6835  1.7413
 5417SOL     MW21668   3.392   0.417   1.476 -0.1009 -0.1665  0.3608
 5418SOL     OW21669   2.705   3.774   3.883  0.3735 -0.0051  0.3126
 5418SOL    HW121670   2.639   3.796   3.817 -0.8787 -0.1685  1.4563
 5418SOL    HW221671   2.688   3.682   3.905  1.0963 -0.1032  0.5062
 5418SOL     MW21672   2.694   3.765   3.878  0.3057 -0.0386  0.4838
 5419SOL     OW21673   1.544   5.207   3.024  0.4560  0.3359 -0.1516
 5419SOL    HW121674   1.467   5.260   3.043 -2.1465 -3.2693  0.4618
 5419SOL    HW221675   1.607   5.231   3.092 -0.6998  2.3127  0.2952
 5419SOL     MW21676   1.542   5.217   3.035 -0.0251  0.1275 -0.0158
 5420SOL     OW21677   1.991   1.160   4.157  0.2747 -0.3561  0.3228
 5420SOL    HW121678   1.911   1.194   4.197  0.2126 -1.0779  0.8289
 5420SOL    HW221679   1.961   1.107   4.083  0.4103  1.4027 -1.0626
 5420SOL     MW21680   1.977   1.158   4.153  0.2841 -0.2233  0.2102
 5421SOL     OW21681   0.778   1.564   2.891 -0.4341  0.5618  0.0965
 5421SOL    HW121682   0.732   1.503   2.949 -0.2420 -0.5181 -0.8600
 5421SOL    HW221683   0.840   1.609   2.949  1.2054 -1.9460  0.4539
 5421SOL     MW21684   0.780   1.562   2.906 -0.1996  0.1025  0.0198
 5422SOL     OW21685   0.066   0.374   0.798  0.1237  0.4131 -0.1161
 5422SOL    HW121686   0.012   0.297   0.779 -0.3460  0.4473  0.9878
 5422SOL    HW221687   0.156   0.345   0.781 -0.0731 -0.2778 -0.0331
 5422SOL     MW21688   0.070   0.360   0.793  0.0384  0.3290  0.0359
 5423SOL     OW21689   3.324   1.952   3.731  0.0793 -0.0400 -0.0706
 5423SOL    HW121690   3.313   1.877   3.789  0.5147  1.0675  1.5356
 5423SOL    HW221691   3.308   2.028   3.788  0.3295  1.1043 -1.4664
 5423SOL     MW21692   3.320   1.952   3.746  0.1671  0.2482 -0.0437
 5424SOL     OW21693   3.558   4.539   0.849 -0.2675  0.2696  0.6965
 5424SOL    HW121694   3.640   4.577   0.882  0.0350 -0.8131  1.2568
 5424SOL    HW221695   3.499   4.541   0.925 -1.0988  1.9295  0.0341
 5424SOL     MW21696   3.561   4.544   0.863 -0.3352  0.3435  0.6834
 5425SOL     OW21697   1.342   3.196   0.559  0.0708  0.0526 -0.2254
 5425SOL    HW121698   1.371   3.129   0.497  1.1813 -0.0627  0.3867
 5425SOL    HW221699   1.414   3.260   0.561  0.3951 -0.3184  1.4562
 5425SOL     MW21700   1.355   3.196   0.551  0.2545 -0.0096  0.0682
 5426SOL     OW21701   0.431   1.734   2.834 -0.3605 -0.7076 -0.0683
 5426SOL    HW121702   0.501   1.730   2.769  1.8914  1.6560  2.0160
 5426SOL    HW221703   0.399   1.824   2.830 -0.9542 -0.8242  1.3445
 5426SOL     MW21704   0.436   1.745   2.825 -0.1483 -0.4200  0.3794
 5427SOL     OW21705   0.816   2.093   1.099  0.3813 -0.6820 -0.1780
 5427SOL    HW121706   0.792   2.005   1.129 -2.0331  0.6207  2.1580
 5427SOL    HW221707   0.874   2.126   1.168  0.4459 -0.1051 -0.5073
 5427SOL     MW21708   0.820   2.086   1.112  0.0805 -0.4414  0.0789
 5428SOL     OW21709   2.259   2.022   2.250 -0.3377 -0.0904  0.0839
 5428SOL    HW121710   2.178   2.064   2.219 -0.2684 -0.9129 -1.2963
 5428SOL    HW221711   2.238   1.990   2.338 -2.0322 -1.6356 -0.8264
 5428SOL     MW21712   2.246   2.023   2.257 -0.5457 -0.3935 -0.2093
 5429SOL     OW21713   0.263   5.087   4.800  0.0169  0.3276  0.8771
 5429SOL    HW121714   0.175   5.083   4.762 -0.8487 -1.1950  2.8230
 5429SOL    HW221715   0.308   5.156   4.751 -1.8481  0.3152 -0.9937
 5429SOL     MW21716   0.257   5.095   4.789 -0.3327  0.1311  0.8867
 5430SOL     OW21717   2.416   2.415   2.193  0.0747  0.1244 -0.1047
 5430SOL    HW121718   2.471   2.343   2.225  0.5664  0.9435  0.9691
 5430SOL    HW221719   2.326   2.385   2.207  0.2736 -0.2837  0.3200
 5430SOL     MW21720   2.411   2.402   2.199  0.1631  0.1770  0.0871
 5431SOL     OW21721   3.074   2.246   3.088  0.1101  0.4222  0.5515
 5431SOL    HW121722   3.017   2.170   3.091 -0.8296  1.0426 -0.5647
 5431SOL    HW221723   3.026   2.310   3.035  2.8795  0.1062 -2.6403
 5431SOL     MW21724   3.061   2.245   3.082  0.3443  0.4612  0.0000
 5432SOL     OW21725   1.308   1.599   1.665  0.1766  0.2602  0.5960
 5432SOL    HW121726   1.382   1.586   1.606 -0.4986 -0.4093 -0.1177
 5432SOL    HW221727   1.339   1.566   1.750  0.9749  0.7623  0.5097
 5432SOL     MW21728   1.322   1.593   1.669  0.1923  0.2388  0.4936
 5433SOL     OW21729   3.060   2.072   4.893 -0.3406  0.1057  0.2187
 5433SOL    HW121730   3.080   1.990   4.847  0.2353  0.2855  0.1417
 5433SOL    HW221731   3.083   2.054   4.985 -1.1869 -0.1485  0.3914
 5433SOL     MW21732   3.066   2.059   4.899 -0.3752  0.0962  0.2310
 5434SOL     OW21733   0.499   5.448   4.374 -0.2061  0.2067  0.6607
 5434SOL    HW121734   0.436   5.442   4.303  0.7581  2.2142 -0.4571
 5434SOL    HW221735   0.549   5.366   4.368  0.6759  0.8237 -1.8632
 5434SOL     MW21736   0.498   5.437   4.364  0.0302  0.5427  0.1945
 5435SOL     OW21737   2.187   1.309   0.882 -1.0516 -0.1276 -0.2031
 5435SOL    HW121738   2.216   1.218   0.894  0.8692  0.3793 -0.6419
 5435SOL    HW221739   2.195   1.324   0.788 -1.7730  0.3770 -0.1869
 5435SOL     MW21740   2.192   1.299   0.871 -0.8981  0.0019 -0.2572
 5436SOL     OW21741   0.620   4.566   3.736  0.8007  0.3081 -0.4470
 5436SOL    HW121742   0.683   4.603   3.674  2.0323 -2.2919 -0.8746
 5436SOL    HW221743   0.673   4.545   3.813  0.1038 -0.3111 -0.1365
 5436SOL     MW21744   0.635   4.568   3.738  0.8692 -0.1040 -0.4620
 5437SOL     OW21745   1.767   0.492   2.873  0.8707 -0.7563 -0.3574
 5437SOL    HW121746   1.728   0.435   2.807 -0.6786 -0.0509 -0.0873
 5437SOL    HW221747   1.782   0.574   2.827 -2.0656  0.4218  0.5446
 5437SOL     MW21748   1.764   0.495   2.858  0.2965 -0.5151 -0.2074
 5438SOL     OW21749   4.098   1.835   4.179 -0.0512  0.2516 -0.3546
 5438SOL    HW121750   4.188   1.825   4.149 -0.2993 -0.9699 -0.7255
 5438SOL    HW221751   4.101   1.814   4.272 -0.1378 -0.9297 -0.6067
 5438SOL     MW21752   4.110   1.831   4.187 -0.0941 -0.0560 -0.4343
 5439SOL     OW21753   2.703   0.766   1.660  0.4534  0.7734  0.1327
 5439SOL    HW121754   2.707   0.674   1.687  2.7412  0.9902  0.8175
 5439SOL    HW221755   2.673   0.813   1.738 -0.9187  0.6177 -0.2803
 5439SOL     MW21756   2.700   0.760   1.673  0.5706  0.7812  0.1675
 5440SOL     OW21757   5.219   4.551   0.258 -0.5562  1.0544 -0.1096
 5440SOL    HW121758   5.166   4.473   0.242 -0.7932  1.4675 -1.4564
 5440SOL    HW221759   5.294   4.519   0.308 -0.8496  0.0271 -0.3088
 5440SOL     MW21760   5.222   4.537   0.262 -0.6241  0.9758 -0.3075
 5441SOL     OW21761   2.770   0.857   5.299 -0.2357  0.3395  0.1195
 5441SOL    HW121762   2.745   0.883   5.388 -0.8692  1.8727 -0.4693
 5441SOL    HW221763   2.720   0.777   5.283  0.4483 -0.3767  1.3835
 5441SOL     MW21764   2.760   0.850   5.308 -0.2292  0.4441  0.2059
 5442SOL     OW21765   0.026   4.223   0.844 -0.6239 -0.0946  0.1685
 5442SOL    HW121766   0.006   4.141   0.799  0.6712 -0.3055 -0.0725
 5442SOL    HW221767  -0.022   4.290   0.795  0.6158 -0.3379 -1.4662
 5442SOL     MW21768   0.017   4.221   0.832 -0.2994 -0.1528 -0.0716
 5443SOL     OW21769   0.552   1.622   2.336 -0.2656 -0.0108  0.3720
 5443SOL    HW121770   0.457   1.625   2.332 -0.2720 -1.0820 -0.9423
 5443SOL    HW221771   0.572   1.546   2.391 -0.1984 -0.9526 -0.9118
 5443SOL     MW21772   0.543   1.613   2.343 -0.2578 -0.2685  0.0394
 5444SOL     OW21773   0.763   4.873   4.561 -0.0997  0.0325 -0.0611
 5444SOL    HW121774   0.827   4.923   4.510  1.9554 -1.1656  1.2058
 5444SOL    HW221775   0.686   4.930   4.566  0.8407  1.5300 -1.6737
 5444SOL     MW21776   0.761   4.887   4.555  0.2838  0.0708 -0.1054
 5445SOL     OW21777   4.529   5.153   0.950  0.2048 -0.4987  0.1936
 5445SOL    HW121778   4.502   5.241   0.979  1.4920 -0.3651  1.0971
 5445SOL    HW221779   4.448   5.104   0.942 -0.3945  0.1029  2.0341
 5445SOL     MW21780   4.515   5.158   0.953  0.2928 -0.4046  0.5448
 5446SOL     OW21781   2.129   2.899   0.491 -0.0436  0.6527  0.3540
 5446SOL    HW121782   2.072   2.900   0.415  0.5060  1.0161 -0.0620
 5446SOL    HW221783   2.122   2.810   0.526  0.3135  0.2416 -0.5869
 5446SOL     MW21784   2.121   2.888   0.486  0.0724  0.6466  0.1803
 5447SOL     OW21785   1.788   2.574   0.443 -0.3071  0.5064  0.1673
 5447SOL    HW121786   1.733   2.524   0.384 -1.6196  0.8390  1.0780
 5447SOL    HW221787   1.743   2.657   0.454 -0.8904 -0.0649  2.7678
 5447SOL     MW21788   1.775   2.578   0.437 -0.5498  0.4758  0.6168
 5448SOL     OW21789   5.013   4.018   1.950  0.6486 -0.1983  0.0129
 5448SOL    HW121790   5.013   3.978   2.036  0.5697  0.8035  0.4866
 5448SOL    HW221791   5.074   4.091   1.957  0.8412 -0.2516 -0.8609
 5448SOL     MW21792   5.021   4.022   1.962  0.6631 -0.0769 -0.0383
 5449SOL     OW21793   4.654   0.648   3.987 -0.3244 -0.0827 -0.1313
 5449SOL    HW121794   4.699   0.716   4.037  2.6058 -2.3512  0.6086
 5449SOL    HW221795   4.561   0.664   4.002  0.2787  2.9175  1.0329
 5449SOL     MW21796   4.648   0.659   3.995  0.1279  0.0109  0.1124
 5450SOL     OW21797   2.178   5.219   0.635  0.4475 -0.4262 -0.0245
 5450SOL    HW121798   2.231   5.188   0.709  1.3492  1.5527  0.2071
 5450SOL    HW221799   2.143   5.303   0.663 -0.5787 -0.4198 -1.2338
 5450SOL     MW21800   2.180   5.226   0.648  0.4315 -0.1720 -0.1497
 5451SOL     OW21801   0.375   0.235   4.131  0.1756 -0.4462  0.1740
 5451SOL    HW121802   0.310   0.298   4.102  0.3289  0.0917  0.9744
 5451SOL    HW221803   0.326   0.153   4.143 -0.3264 -0.0885  0.6030
 5451SOL     MW21804   0.361   0.232   4.129  0.1309 -0.3315  0.3314
 5452SOL     OW21805   5.046   5.256   2.021 -0.1958 -0.0696 -0.0863
 5452SOL    HW121806   5.107   5.326   2.047  0.3052 -0.7966  0.7349
 5452SOL    HW221807   5.061   5.245   1.927  0.9308 -0.2094  0.0945
 5452SOL     MW21808   5.056   5.264   2.012  0.0125 -0.1806  0.0420
 5453SOL     OW21809   5.391   5.307   1.072 -0.4328 -0.3633  0.6740
 5453SOL    HW121810   5.333   5.258   1.014 -0.8397 -1.6183  2.0604
 5453SOL    HW221811   5.442   5.239   1.117  0.6823  0.6260  0.9449
 5453SOL     MW21812   5.390   5.292   1.071 -0.3421 -0.3973  0.8862
 5454SOL     OW21813   1.013   4.675   4.271  0.0747 -0.3556 -0.0156
 5454SOL    HW121814   1.028   4.644   4.181 -0.4642  0.1915 -0.3072
 5454SOL    HW221815   0.918   4.668   4.282  0.2121 -1.0289  0.7449
 5454SOL     MW21816   1.003   4.670   4.261  0.0233 -0.3717  0.0444
 5455SOL     OW21817   2.544   3.370   4.473 -0.6148  0.7997 -0.0927
 5455SOL    HW121818   2.541   3.465   4.484  1.1100  0.7698  1.1124
 5455SOL    HW221819   2.638   3.350   4.469 -0.8847 -1.0379  1.6511
 5455SOL     MW21820   2.556   3.380   4.473 -0.4285  0.5606  0.2848
 5456SOL     OW21821   1.600   4.136   0.908 -0.4844 -0.3398  0.0080
 5456SOL    HW121822   1.587   4.229   0.928 -0.0247  0.0108 -1.2554
 5456SOL    HW221823   1.672   4.135   0.846 -0.1983 -1.5923  0.3423
 5456SOL     MW21824   1.608   4.148   0.903 -0.3889 -0.4552 -0.1109
 5457SOL     OW21825   5.371   1.750   3.245 -0.6360 -1.1301  0.0460
 5457SOL    HW121826   5.448   1.796   3.211 -0.9005 -0.5360  0.2338
 5457SOL    HW221827   5.353   1.683   3.180 -0.2633 -0.9442 -0.2545
 5457SOL     MW21828   5.379   1.748   3.232 -0.6221 -1.0303  0.0316
 5458SOL     OW21829   2.189   4.199   1.145  0.3832 -0.2647  0.0300
 5458SOL    HW121830   2.231   4.266   1.091 -0.6853  0.5659  0.2002
 5458SOL    HW221831   2.237   4.119   1.125  3.0487  0.8950  1.3891
 5458SOL     MW21832   2.200   4.197   1.135  0.5877 -0.0099  0.2258
 5459SOL     OW21833   3.860   3.800   1.794  0.3176 -0.8632  0.2316
 5459SOL    HW121834   3.897   3.860   1.859  1.3371 -1.3394  0.1131
 5459SOL    HW221835   3.904   3.716   1.812  1.0924 -0.8554 -1.4540
 5459SOL     MW21836   3.870   3.797   1.805  0.5473 -0.9232  0.0007
 5460SOL     OW21837   5.485   3.180   2.086  0.6028  0.2929  0.0746
 5460SOL    HW121838   5.395   3.201   2.110  0.5929  0.9451 -0.4930
 5460SOL    HW221839   5.506   3.240   2.014  2.0151  1.2436  1.2186
 5460SOL     MW21840   5.476   3.190   2.080  0.7823  0.4981  0.1484
 5461SOL     OW21841   2.955   4.686   4.198  0.3061  0.0913  0.5284
 5461SOL    HW121842   2.971   4.775   4.228  0.9344 -0.0046  0.4798
 5461SOL    HW221843   2.892   4.696   4.126  2.9574  0.8613 -1.8715
 5461SOL     MW21844   2.949   4.699   4.192  0.7259  0.1776  0.2149
 5462SOL     OW21845   0.491   0.270   5.192 -0.0207  0.1498 -0.3481
 5462SOL    HW121846   0.539   0.306   5.267  0.2709  1.6098 -1.2010
 5462SOL    HW221847   0.472   0.180   5.217  1.3799  0.1531  0.8556
 5462SOL     MW21848   0.495   0.263   5.205  0.1959  0.3371 -0.3032
 5463SOL     OW21849   3.847   1.171   0.423  0.2528  0.8245 -0.2147
 5463SOL    HW121850   3.805   1.163   0.337 -1.9881 -0.8359  0.9177
 5463SOL    HW221851   3.796   1.238   0.468  0.9722  1.1911  0.0665
 5463SOL     MW21852   3.835   1.178   0.418  0.0581  0.6588 -0.0337
 5464SOL     OW21853   5.269   3.664   4.765  0.4851  0.2063 -0.1620
 5464SOL    HW121854   5.351   3.621   4.741 -0.0672 -1.6044  1.0043
 5464SOL    HW221855   5.202   3.598   4.746 -0.5958  1.2508 -0.0527
 5464SOL     MW21856   5.271   3.650   4.759  0.2761  0.1082  0.0013
 5465SOL     OW21857   4.680   4.740   2.881 -0.0264  0.2374 -0.7000
 5465SOL    HW121858   4.611   4.738   2.947  0.7721  1.7923  0.2537
 5465SOL    HW221859   4.753   4.693   2.921  0.1547  0.3809 -0.8594
 5465SOL     MW21860   4.680   4.734   2.895  0.0990  0.4548 -0.5983
 5466SOL     OW21861   4.426   0.612   3.122  0.2420 -0.2418 -0.2265
 5466SOL    HW121862   4.378   0.529   3.111  0.6896 -0.5154 -0.1156
 5466SOL    HW221863   4.462   0.607   3.210  0.4079  0.0045 -0.2815
 5466SOL     MW21864   4.424   0.600   3.132  0.3205 -0.2453 -0.2194
 5467SOL     OW21865   3.521   1.601   1.691  0.1333 -0.3181 -0.1123
 5467SOL    HW121866   3.586   1.638   1.631 -0.5309 -0.8305 -1.1793
 5467SOL    HW221867   3.572   1.544   1.748  0.5157 -1.7074 -1.7467
 5467SOL     MW21868   3.536   1.598   1.690  0.0972 -0.5616 -0.4581
 5468SOL     OW21869   1.462   4.422   1.740  0.1007  0.1508  0.1338
 5468SOL    HW121870   1.556   4.409   1.739  0.1291  0.2040  1.3371
 5468SOL    HW221871   1.431   4.374   1.816 -0.7238  0.8893  0.2878
 5468SOL     MW21872   1.470   4.414   1.749 -0.0012  0.2521  0.3075
 5469SOL     OW21873   0.385   4.379   3.087  0.9270 -0.3672  0.0801
 5469SOL    HW121874   0.446   4.444   3.122 -0.4575  0.6858  0.5887
 5469SOL    HW221875   0.298   4.409   3.113  0.2104 -2.3041  0.1243
 5469SOL     MW21876   0.382   4.391   3.095  0.6581 -0.4803  0.1509
 5470SOL     OW21877   3.484   3.076   3.574  0.4700 -0.5051  0.4407
 5470SOL    HW121878   3.466   2.986   3.602 -0.0205 -0.8495 -0.8678
 5470SOL    HW221879   3.420   3.129   3.621 -1.5165 -1.2695 -1.2127
 5470SOL     MW21880   3.473   3.071   3.583  0.1529 -0.6471  0.0615
 5471SOL     OW21881   3.914   1.659   4.069 -0.0659 -0.8592  0.5952
 5471SOL    HW121882   3.974   1.590   4.096  1.2032  0.2327  0.6415
 5471SOL    HW221883   3.942   1.736   4.119 -0.2301  0.1780 -0.8523
 5471SOL     MW21884   3.925   1.660   4.079  0.0755 -0.5866  0.4158
 5472SOL     OW21885   5.110   0.188   0.878  0.1147 -0.6661 -0.1072
 5472SOL    HW121886   5.067   0.120   0.930 -1.2318 -1.2443 -1.8867
 5472SOL    HW221887   5.065   0.186   0.793  1.3066  1.1728 -0.8479
 5472SOL     MW21888   5.099   0.179   0.874  0.0949 -0.5047 -0.4298
 5473SOL     OW21889   4.968   3.167   1.102 -0.0521  0.4887  0.7503
 5473SOL    HW121890   4.976   3.164   1.007  1.2525 -1.7913  0.8393
 5473SOL    HW221891   4.874   3.182   1.118 -0.2674  1.0447 -0.8748
 5473SOL     MW21892   4.957   3.168   1.092  0.0873  0.2680  0.5536
 5474SOL     OW21893   3.955   2.571   1.664 -0.3228 -0.1030 -0.0276
 5474SOL    HW121894   3.912   2.580   1.579 -0.0078  0.8297 -0.0886
 5474SOL    HW221895   4.048   2.577   1.645 -0.2002 -0.8402  0.2766
 5474SOL     MW21896   3.961   2.573   1.651 -0.2668 -0.0779  0.0035
 5475SOL     OW21897   1.474   0.784   3.033  0.0594  0.1873 -0.1719
 5475SOL    HW121898   1.463   0.838   3.111  0.5093 -0.8782  0.6740
 5475SOL    HW221899   1.401   0.723   3.035  1.3681 -1.4500  0.8305
 5475SOL     MW21900   1.464   0.783   3.043  0.2845 -0.1587  0.0647
 5476SOL     OW21901   3.824   5.154   3.484  0.1160  0.3605 -0.5316
 5476SOL    HW121902   3.857   5.076   3.530 -0.3655  0.6048  0.2529
 5476SOL    HW221903   3.828   5.224   3.550 -2.1604  0.3548 -0.3027
 5476SOL     MW21904   3.829   5.153   3.498 -0.2370  0.3910 -0.4019
 5477SOL     OW21905   4.660   5.288   4.345  0.6650 -0.1989  0.0924
 5477SOL    HW121906   4.664   5.366   4.400 -1.0976  0.3683 -0.5062
 5477SOL    HW221907   4.651   5.322   4.256 -1.8705 -0.9804 -0.0484
 5477SOL     MW21908   4.659   5.303   4.341  0.1148 -0.2263 -0.0022
 5478SOL     OW21909   2.760   5.152   1.547  0.2380 -0.2983 -0.3955
 5478SOL    HW121910   2.674   5.109   1.551  0.1075 -0.2657 -2.0228
 5478SOL    HW221911   2.739   5.245   1.537  0.3423 -0.4801 -3.1022
 5478SOL     MW21912   2.746   5.158   1.546  0.2346 -0.3174 -0.9503
 5479SOL     OW21913   0.069   1.816   1.299 -0.0861 -0.3654  0.0698
 5479SOL    HW121914   0.123   1.754   1.250 -0.5447 -0.5501 -0.2073
 5479SOL    HW221915   0.061   1.778   1.386  1.8455  0.6077  0.7308
 5479SOL     MW21916   0.075   1.803   1.304  0.1025 -0.2645  0.1189
 5480SOL     OW21917   4.676   2.274   2.051  0.0821 -0.1694  0.7310
 5480SOL    HW121918   4.639   2.202   2.103  0.1429 -0.6339  0.1400
 5480SOL    HW221919   4.740   2.231   1.994  1.1784  0.5371  1.3688
 5480SOL     MW21920   4.680   2.259   2.051  0.2302 -0.1384  0.7370
 5481SOL     OW21921   1.521   4.662   5.392 -0.3092 -0.1948 -0.2499
 5481SOL    HW121922   1.591   4.628   5.449 -0.5488  0.5100  0.4849
 5481SOL    HW221923   1.442   4.621   5.426 -0.0528 -2.8970 -2.5661
 5481SOL     MW21924   1.520   4.652   5.404 -0.3070 -0.4505 -0.4523
 5482SOL     OW21925   5.024   2.613   1.282  0.2460  0.3682 -0.1928
 5482SOL    HW121926   4.969   2.635   1.357  0.3387 -1.2418  0.3737
 5482SOL    HW221927   5.008   2.684   1.220 -0.8893  1.0065  0.7765
 5482SOL     MW21928   5.015   2.625   1.284  0.1126  0.2438  0.0038
 5483SOL     OW21929   1.953   2.294   0.033  0.5115 -0.6435 -0.4537
 5483SOL    HW121930   1.975   2.368   0.089 -0.4626  0.3344 -1.3255
 5483SOL    HW221931   2.027   2.234   0.043  1.6404  0.7292 -0.2329
 5483SOL     MW21932   1.965   2.296   0.042  0.5313 -0.3426 -0.5370
 5484SOL     OW21933   0.434   1.968   5.176  0.2813  0.0867 -0.2051
 5484SOL    HW121934   0.409   1.894   5.121 -0.1730  0.2993 -0.2928
 5484SOL    HW221935   0.403   2.045   5.128 -3.9317  0.1617  2.1095
 5484SOL     MW21936   0.427   1.969   5.163 -0.3161  0.1235  0.0799
 5485SOL     OW21937   4.270   4.088   2.884  0.0338  0.1882  0.2906
 5485SOL    HW121938   4.274   4.075   2.978  0.2967  0.6920  0.3518
 5485SOL    HW221939   4.330   4.161   2.867  0.9248 -0.6901 -0.4163
 5485SOL     MW21940   4.278   4.096   2.893  0.1816  0.1402  0.2079
 5486SOL     OW21941   4.827   0.340   3.420 -0.4287 -0.4057  0.0416
 5486SOL    HW121942   4.869   0.288   3.488  1.1577 -0.2764 -0.7849
 5486SOL    HW221943   4.737   0.349   3.449  0.1048 -0.6667  1.9341
 5486SOL     MW21944   4.821   0.334   3.432 -0.1573 -0.4225  0.1781
 5487SOL     OW21945   3.140   1.812   4.030  0.1217  0.2462  0.1744
 5487SOL    HW121946   3.135   1.892   4.084  0.3548 -0.0962  0.7094
 5487SOL    HW221947   3.233   1.801   4.012  0.1461 -0.2297  0.5936
 5487SOL     MW21948   3.151   1.821   4.035  0.1547  0.1415  0.2965
 5488SOL     OW21949   3.847   5.336   3.690 -0.0999 -0.0602  0.3141
 5488SOL    HW121950   3.766   5.386   3.687 -0.6106 -0.8539  0.5367
 5488SOL    HW221951   3.843   5.288   3.773 -0.0894 -1.2136 -0.3303
 5488SOL     MW21952   3.836   5.336   3.700 -0.1640 -0.3095  0.2601
 5489SOL     OW21953   4.519   0.642   2.532 -0.3378 -0.5175  0.2021
 5489SOL    HW121954   4.464   0.692   2.593  0.9415  0.8809  0.2898
 5489SOL    HW221955   4.562   0.710   2.479 -0.3005 -1.6515 -1.2764
 5489SOL     MW21956   4.518   0.657   2.533 -0.1692 -0.4837  0.0240
 5490SOL     OW21957   3.562   3.325   0.096  0.2534 -0.2283 -0.0356
 5490SOL    HW121958   3.647   3.335   0.139  0.2398  0.2727 -0.1232
 5490SOL    HW221959   3.563   3.235   0.063  0.0358 -0.8314  1.5145
 5490SOL     MW21960   3.573   3.315   0.098  0.2238 -0.2414  0.1516
 5491SOL     OW21961   5.124   3.540   2.171 -0.4095 -0.4038 -0.6939
 5491SOL    HW121962   5.174   3.474   2.123 -0.9611 -0.5729 -1.0357
 5491SOL    HW221963   5.171   3.622   2.152  0.8815 -0.8104  0.5559
 5491SOL     MW21964   5.137   3.542   2.162 -0.3148 -0.4775 -0.5776
 5492SOL     OW21965   3.389   1.113   2.278 -0.4879  0.5666 -0.2513
 5492SOL    HW121966   3.387   1.188   2.218 -0.8968  0.1991 -0.7060
 5492SOL    HW221967   3.390   1.037   2.221  0.9354  0.2255  0.2008
 5492SOL     MW21968   3.389   1.113   2.263 -0.3581  0.4759 -0.2517
 5493SOL     OW21969   3.510   2.336   4.469 -0.1895  0.0923  0.1347
 5493SOL    HW121970   3.414   2.340   4.471 -0.1998 -0.3453  1.2281
 5493SOL    HW221971   3.537   2.422   4.437 -0.9596 -0.0681 -1.0021
 5493SOL     MW21972   3.501   2.347   4.465 -0.2894  0.0157  0.1291
 5494SOL     OW21973   2.754   2.809   4.266 -0.5932  0.6997 -0.3293
 5494SOL    HW121974   2.842   2.780   4.286 -0.7693 -0.1900 -0.8354
 5494SOL    HW221975   2.720   2.840   4.351  0.1801  1.0295 -0.1295
 5494SOL     MW21976   2.761   2.809   4.280 -0.5168  0.6280 -0.3685
 5495SOL     OW21977   3.641   5.310   3.154  0.4011  0.4121 -0.4928
 5495SOL    HW121978   3.693   5.246   3.105 -0.6615  0.5707 -1.8826
 5495SOL    HW221979   3.609   5.370   3.088 -2.1758 -0.1226  0.1759
 5495SOL     MW21980   3.644   5.309   3.139 -0.0648  0.3639 -0.5851
 5496SOL     OW21981   4.054   0.991   0.485 -0.3370  0.5457 -0.7691
 5496SOL    HW121982   3.992   1.056   0.452 -1.2176  0.3641  0.4433
 5496SOL    HW221983   4.048   0.918   0.423 -3.4769 -0.6554  0.7265
 5496SOL     MW21984   4.046   0.990   0.473 -0.8516  0.3687 -0.4225
 5497SOL     OW21985   4.542   0.475   1.655  0.3108 -0.3174  0.8757
 5497SOL    HW121986   4.488   0.411   1.608 -0.5156  0.2563  1.0207
 5497SOL    HW221987   4.479   0.539   1.688  0.6927 -1.2553  3.7359
 5497SOL     MW21988   4.527   0.475   1.653  0.2539 -0.3640  1.2604
 5498SOL     OW21989   1.870   1.106   4.858 -0.3507  0.0051  0.2383
 5498SOL    HW121990   1.891   1.184   4.808 -0.5789  0.6925  1.1882
 5498SOL    HW221991   1.956   1.070   4.883 -0.2220 -0.6640 -1.0892
 5498SOL     MW21992   1.884   1.111   4.855 -0.3634  0.0074  0.1899
 5499SOL     OW21993   3.174   4.018   0.193  0.3135 -0.0025 -0.1305
 5499SOL    HW121994   3.160   4.033   0.100  2.1820 -0.7654 -0.5726
 5499SOL    HW221995   3.150   3.927   0.208  2.3467 -0.6412 -0.4351
 5499SOL     MW21996   3.169   4.009   0.183  0.8130 -0.1819 -0.2261
 5500SOL     OW21997   5.332   2.562   4.729 -0.0129  0.2762  0.5352
 5500SOL    HW121998   5.360   2.504   4.658 -0.3030 -0.1011  0.7280
 5500SOL    HW221999   5.359   2.518   4.809  1.5553  1.3473  0.6418
 5500SOL     MW22000   5.339   2.549   4.730  0.1507  0.3650  0.5735
   5.46922   5.46922   5.46922
